Generated by pymatgen.io.lammps.data.LammpsData

4  atoms

2  atom types

0.000000 3.650690  xlo xhi
0.000000 3.161590  ylo yhi
0.000000 3.888635  zlo zhi
-1.825345 0.000000 0.000000  xy xz yz

Masses

1   6.9410
2  14.0067

Atoms

1  1  0.239  0.000000 0.000000 1.944317
2  1  0.239 -0.000000 2.107727 0.000000
3  1  0.239  1.825345 1.053863 0.000000
4  2 -0.717  0.000000 0.000000 0.000000
