<?xml version="1.0" encoding="ISO-8859-1"?>
<modeling>
 <generator>
  <i name="program" type="string">vasp </i>
  <i name="version" type="string">6.2.1  </i>
  <i name="subversion" type="string">16May21 (build Jun  3 2021 10:05:46) complex                          parallel </i>
  <i name="platform" type="string">LinuxGNU </i>
  <i name="date" type="string">2021 06 07 </i>
  <i name="time" type="string">13:07:55 </i>
 </generator>
 <incar>
  <i type="string" name="PREC">Accurate</i>
  <i type="string" name="ALGO">Fast</i>
  <i type="int" name="ISPIN">     2</i>
  <i type="int" name="NELM">   100</i>
  <i type="int" name="IBRION">     2</i>
  <i name="EDIFF">      0.00040000</i>
  <i type="int" name="NSW">    99</i>
  <i type="int" name="ISIF">     2</i>
  <i name="ENCUT">    520.00000000</i>
  <v name="MAGMOM">      0.60000000      0.60000000      0.60000000      0.60000000      0.60000000      0.60000000      0.60000000      0.60000000</v>
  <i type="string" name="LREAL">Auto</i>
  <i type="int" name="ISMEAR">    -5</i>
  <i name="SIGMA">      0.05000000</i>
  <i type="logical" name="LWAVE"> F  </i>
  <i type="int" name="LORBIT">    11</i>
  <i type="logical" name="LASPH"> T  </i>
 </incar>
 <primitive_cell>
  <structure name="primitive_cell" >
   <crystal>
    <varray name="basis" >
     <v>       0.00000000      -2.66600500      -2.87108200 </v>
     <v>       0.00000000       2.66600500      -2.87108200 </v>
     <v>       2.66600500       0.00000000       2.87108200 </v>
    </varray>
    <i name="volume">     40.81290528 </i>
    <varray name="rec_basis" >
     <v>       0.18754653      -0.18754653      -0.17415037 </v>
     <v>       0.18754653       0.18754653      -0.17415037 </v>
     <v>       0.37509307       0.00000000       0.00000000 </v>
    </varray>
   </crystal>
   <varray name="positions" >
    <v>       0.25000000       0.75000000       0.50000000 </v>
    <v>       0.50000000       0.50000000       0.00000000 </v>
   </varray>
  </structure>
  <varray name="primitive_index" >
   <v type="int" >        1 </v>
   <v type="int" >        2 </v>
  </varray>
 </primitive_cell>
 <kpoints>
  <generation param="Monkhorst-Pack">
   <v type="int" name="divisions">       4        4        4 </v>
   <v name="usershift">      0.00000000       0.00000000       0.00000000 </v>
   <v name="genvec1">      0.25000000       0.00000000       0.00000000 </v>
   <v name="genvec2">      0.00000000       0.25000000       0.00000000 </v>
   <v name="genvec3">      0.00000000       0.00000000       0.25000000 </v>
   <v name="shift">      0.50000000       0.50000000       0.50000000 </v>
  </generation>
  <varray name="kpointlist" >
   <v>       0.12500000       0.12500000       0.12500000 </v>
   <v>       0.37500000       0.12500000       0.12500000 </v>
   <v>       0.37500000       0.37500000       0.12500000 </v>
   <v>       0.12500000       0.12500000       0.37500000 </v>
   <v>       0.37500000       0.12500000       0.37500000 </v>
   <v>       0.37500000       0.37500000       0.37500000 </v>
  </varray>
  <varray name="weights" >
   <v>       0.12500000 </v>
   <v>       0.25000000 </v>
   <v>       0.12500000 </v>
   <v>       0.12500000 </v>
   <v>       0.25000000 </v>
   <v>       0.12500000 </v>
  </varray>
  <varray name="tetrahedronlist"  type="int" >
   <v type="int" >        4        1        2        3        4 </v>
   <v type="int" >        4        2        3        4        5 </v>
   <v type="int" >        4        3        4        5        6 </v>
   <v type="int" >        8        2        2        3        5 </v>
   <v type="int" >        4        2        3        3        5 </v>
   <v type="int" >        4        3        3        5        6 </v>
   <v type="int" >        4        2        3        5        5 </v>
   <v type="int" >        4        3        5        5        6 </v>
   <v type="int" >        4        3        5        6        6 </v>
   <v type="int" >        8        1        2        2        5 </v>
   <v type="int" >        4        2        3        5        6 </v>
   <v type="int" >        4        1        2        4        5 </v>
   <v type="int" >        8        2        4        5        5 </v>
   <v type="int" >        8        2        5        5        6 </v>
   <v type="int" >        4        1        1        2        4 </v>
   <v type="int" >        4        1        2        2        4 </v>
   <v type="int" >        4        2        2        4        5 </v>
   <v type="int" >        4        1        2        4        4 </v>
   <v type="int" >        4        2        4        4        5 </v>
   <v type="int" >        4        3        3        3        6 </v>
   <v type="int" >        4        3        3        6        6 </v>
   <v type="int" >        4        3        6        6        6 </v>
   <v type="int" >        4        2        2        3        6 </v>
   <v type="int" >        4        2        3        3        6 </v>
   <v type="int" >        4        2        3        6        6 </v>
   <v type="int" >        4        2        2        5        6 </v>
   <v type="int" >        4        2        5        6        6 </v>
   <v type="int" >        8        2        2        2        5 </v>
   <v type="int" >        8        2        2        5        5 </v>
   <v type="int" >        8        2        5        5        5 </v>
   <v type="int" >        4        1        2        3        6 </v>
   <v type="int" >        4        1        2        5        6 </v>
   <v type="int" >        4        1        4        5        6 </v>
   <v type="int" >        4        1        1        2        5 </v>
   <v type="int" >        4        1        1        4        5 </v>
   <v type="int" >        4        1        2        5        5 </v>
   <v type="int" >        4        1        4        5        5 </v>
   <v type="int" >        4        1        4        4        5 </v>
   <v type="int" >        4        1        1        1        4 </v>
   <v type="int" >        4        1        1        4        4 </v>
   <v type="int" >        4        1        4        4        4 </v>
   <v type="int" >        4        4        4        5        6 </v>
   <v type="int" >        4        4        5        5        6 </v>
   <v type="int" >        4        4        5        6        6 </v>
   <v type="int" >       12        5        5        5        6 </v>
   <v type="int" >       10        5        5        6        6 </v>
   <v type="int" >        8        5        6        6        6 </v>
   <v type="int" >       12        4        5        5        5 </v>
   <v type="int" >       10        4        4        5        5 </v>
   <v type="int" >        8        4        4        4        5 </v>
   <v type="int" >        6        6        6        6        6 </v>
   <v type="int" >       12        5        5        5        5 </v>
   <v type="int" >        6        4        4        4        4 </v>
   <v type="int" >        4        1        1        2        3 </v>
   <v type="int" >        4        1        2        2        3 </v>
   <v type="int" >        4        1        2        3        3 </v>
   <v type="int" >       12        2        2        2        3 </v>
   <v type="int" >       10        2        2        3        3 </v>
   <v type="int" >        8        2        3        3        3 </v>
   <v type="int" >       12        1        2        2        2 </v>
   <v type="int" >       10        1        1        2        2 </v>
   <v type="int" >        8        1        1        1        2 </v>
   <v type="int" >        6        3        3        3        3 </v>
   <v type="int" >       12        2        2        2        2 </v>
   <v type="int" >        6        1        1        1        1 </v>
  </varray>
  <i name="volumeweight">      0.00260417 </i>
 </kpoints>
 <parameters>
  <separator name="general" >
   <i type="string" name="SYSTEM">unknown system</i>
   <i type="logical" name="LCOMPAT"> F  </i>
  </separator>
  <separator name="electronic" >
   <i type="string" name="PREC">accura</i>
   <i name="ENMAX">    520.00000000</i>
   <i name="ENAUG">    322.06900000</i>
   <i name="EDIFF">      0.00040000</i>
   <i type="int" name="IALGO">    68</i>
   <i type="int" name="IWAVPR">    11</i>
   <i type="int" name="NBANDS">    24</i>
   <i type="int" name="NBANDSLOW">    -1</i>
   <i type="int" name="NBANDSHIGH">    -1</i>
   <i name="NELECT">     32.00000000</i>
   <i type="int" name="TURBO">     0</i>
   <i type="int" name="IRESTART">     0</i>
   <i type="int" name="NREBOOT">     0</i>
   <i type="int" name="NMIN">     0</i>
   <i name="EREF">      0.00000000</i>
   <separator name="electronic smearing" >
    <i type="int" name="ISMEAR">    -5</i>
    <i name="SIGMA">      0.05000000</i>
    <i name="KSPACING">      0.50000000</i>
    <i type="logical" name="KGAMMA"> T  </i>
    <i type="logical" name="KBLOWUP"> T  </i>
   </separator>
   <separator name="electronic projectors" >
    <i type="logical" name="LREAL"> T  </i>
    <v name="ROPT">     -0.00025000</v>
    <i type="int" name="LMAXPAW">  -100</i>
    <i type="int" name="LMAXMIX">     2</i>
    <i type="logical" name="NLSPLINE"> F  </i>
   </separator>
   <separator name="electronic startup" >
    <i type="int" name="ISTART">     0</i>
    <i type="int" name="ICHARG">     2</i>
    <i type="int" name="INIWAV">     1</i>
   </separator>
   <separator name="electronic spin" >
    <i type="int" name="ISPIN">     2</i>
    <i type="logical" name="LNONCOLLINEAR"> F  </i>
    <v name="MAGMOM">      0.60000000      0.60000000      0.60000000      0.60000000      0.60000000      0.60000000      0.60000000      0.60000000</v>
    <i name="NUPDOWN">     -1.00000000</i>
    <i type="logical" name="LSORBIT"> F  </i>
    <v name="SAXIS">      0.00000000      0.00000000      1.00000000</v>
    <i type="logical" name="LSPIRAL"> F  </i>
    <v name="QSPIRAL">      0.00000000      0.00000000      0.00000000</v>
    <i type="logical" name="LZEROZ"> F  </i>
   </separator>
   <separator name="electronic exchange-correlation" >
    <i type="logical" name="LASPH"> T  </i>
    <i type="logical" name="LMETAGGA"> F  </i>
   </separator>
   <separator name="electronic convergence" >
    <i type="int" name="NELM">   100</i>
    <i type="int" name="NELMDL">    -5</i>
    <i type="int" name="NELMIN">     2</i>
    <i name="ENINI">    520.00000000</i>
    <separator name="electronic convergence detail" >
     <i type="logical" name="LDIAG"> T  </i>
     <i type="logical" name="LSUBROT"> F  </i>
     <i name="WEIMIN">      0.00100000</i>
     <i name="EBREAK">      0.00000417</i>
     <i name="DEPER">      0.30000000</i>
     <i type="int" name="NRMM">     4</i>
     <i name="TIME">      0.40000000</i>
    </separator>
   </separator>
   <separator name="electronic mixer" >
    <i name="AMIX">      0.40000000</i>
    <i name="BMIX">      1.00000000</i>
    <i name="AMIN">      0.10000000</i>
    <i name="AMIX_MAG">      1.60000000</i>
    <i name="BMIX_MAG">      1.00000000</i>
    <separator name="electronic mixer details" >
     <i type="int" name="IMIX">     4</i>
     <i type="logical" name="MIXFIRST"> F  </i>
     <i type="int" name="MAXMIX">   -45</i>
     <i name="WC">    100.00000000</i>
     <i type="int" name="INIMIX">     1</i>
     <i type="int" name="MIXPRE">     1</i>
     <i type="int" name="MREMOVE">     5</i>
    </separator>
   </separator>
   <separator name="electronic dipolcorrection" >
    <i type="logical" name="LDIPOL"> F  </i>
    <i type="logical" name="LMONO"> F  </i>
    <i type="int" name="IDIPOL">     0</i>
    <i name="EPSILON">      1.00000000</i>
    <v name="DIPOL">   -100.00000000   -100.00000000   -100.00000000</v>
    <i name="EFIELD">      0.00000000</i>
   </separator>
  </separator>
  <separator name="grids" >
   <i type="int" name="NGX">    40</i>
   <i type="int" name="NGY">    40</i>
   <i type="int" name="NGZ">    48</i>
   <i type="int" name="NGXF">    80</i>
   <i type="int" name="NGYF">    80</i>
   <i type="int" name="NGZF">    96</i>
   <i type="logical" name="ADDGRID"> F  </i>
  </separator>
  <separator name="ionic" >
   <i type="int" name="NSW">    99</i>
   <i type="int" name="IBRION">     2</i>
   <i type="int" name="MDALGO">     0</i>
   <i type="int" name="ISIF">     2</i>
   <i name="PSTRESS">      0.00000000</i>
   <i name="EDIFFG">      0.00400000</i>
   <i type="int" name="NFREE">     1</i>
   <i name="POTIM">      0.50000000</i>
   <i name="SMASS">     -3.00000000</i>
   <i name="SCALEE">      1.00000000</i>
  </separator>
  <separator name="ionic md" >
   <i name="TEBEG">      0.00010000</i>
   <i name="TEEND">      0.00010000</i>
   <i type="int" name="NBLOCK">     1</i>
   <i type="int" name="KBLOCK">    99</i>
   <i type="int" name="NPACO">   256</i>
   <i name="APACO">     16.00000000</i>
  </separator>
  <separator name="symmetry" >
   <i type="int" name="ISYM">     2</i>
   <i name="SYMPREC">      0.00001000</i>
  </separator>
  <separator name="dos" >
   <i type="int" name="LORBIT">    11</i>
   <v name="RWIGS">     -1.00000000</v>
   <i type="int" name="NEDOS">   301</i>
   <i name="EMIN">     10.00000000</i>
   <i name="EMAX">    -10.00000000</i>
   <i name="EFERMI">      0.00000000</i>
  </separator>
  <separator name="writing" >
   <i type="int" name="NWRITE">     2</i>
   <i type="logical" name="LWAVE"> F  </i>
   <i type="logical" name="LDOWNSAMPLE"> F  </i>
   <i type="logical" name="LCHARG"> T  </i>
   <i type="logical" name="LPARD"> F  </i>
   <i type="logical" name="LVTOT"> F  </i>
   <i type="logical" name="LVHAR"> F  </i>
   <i type="logical" name="LELF"> F  </i>
   <i type="logical" name="LOPTICS"> F  </i>
   <v name="STM">      0.00000000      0.00000000      0.00000000      0.00000000      0.00000000      0.00000000      0.00000000</v>
  </separator>
  <separator name="performance" >
   <i type="int" name="NPAR">    24</i>
   <i type="int" name="NSIM">     4</i>
   <i type="int" name="NBLK">    -1</i>
   <i type="logical" name="LPLANE"> T  </i>
   <i type="logical" name="LSCALAPACK"> T  </i>
   <i type="logical" name="LSCAAWARE"> F  </i>
   <i type="logical" name="LSCALU"> F  </i>
   <i type="logical" name="LASYNC"> F  </i>
   <i type="logical" name="LORBITALREAL"> F  </i>
  </separator>
  <separator name="miscellaneous" >
   <i type="int" name="IDIOT">     3</i>
   <i type="int" name="PHON_NSTRUCT">    -1</i>
   <i type="logical" name="LMUSIC"> F  </i>
   <v name="POMASS">     28.08500000</v>
   <v name="DARWINR">      0.00000000</v>
   <v name="DARWINV">      1.00000000</v>
   <i type="logical" name="LCORR"> T  </i>
  </separator>
  <i type="logical" name="GGA_COMPAT"> T  </i>
  <i type="logical" name="LBERRY"> F  </i>
  <i type="int" name="ICORELEVEL">     0</i>
  <i type="logical" name="LDAU"> F  </i>
  <i type="int" name="I_CONSTRAINED_M">     0</i>
  <separator name="electronic exchange-correlation" >
   <i type="string" name="GGA">--</i>
   <i type="int" name="VOSKOWN">     0</i>
   <i type="logical" name="LHFCALC"> F  </i>
   <i type="string" name="PRECFOCK"></i>
   <i type="logical" name="LSYMGRAD"> F  </i>
   <i type="logical" name="LHFONE"> F  </i>
   <i type="logical" name="LRHFCALC"> F  </i>
   <i type="logical" name="LTHOMAS"> F  </i>
   <i type="logical" name="LMODELHF"> F  </i>
   <i type="logical" name="LFOCKACE"> F  </i>
   <i name="ENCUT4O">     -1.00000000</i>
   <i type="int" name="EXXOEP">     0</i>
   <i type="int" name="FOURORBIT">     0</i>
   <i name="AEXX">      0.00000000</i>
   <i name="HFALPHA">      0.00000000</i>
   <i name="MCALPHA">      0.00000000</i>
   <i name="ALDAX">      1.00000000</i>
   <i name="AGGAX">      1.00000000</i>
   <i name="ALDAC">      1.00000000</i>
   <i name="AGGAC">      1.00000000</i>
   <i type="int" name="NKREDX">     1</i>
   <i type="int" name="NKREDY">     1</i>
   <i type="int" name="NKREDZ">     1</i>
   <i type="logical" name="SHIFTRED"> F  </i>
   <i type="logical" name="ODDONLY"> F  </i>
   <i type="logical" name="EVENONLY"> F  </i>
   <i type="int" name="LMAXFOCK">     0</i>
   <i type="int" name="NMAXFOCKAE">     0</i>
   <i type="logical" name="LFOCKAEDFT"> F  </i>
   <i name="HFSCREEN">      0.00000000</i>
   <i name="HFSCREENC">      0.00000000</i>
   <i type="int" name="NBANDSGWLOW">     0</i>
  </separator>
  <separator name="vdW DFT" >
   <i type="logical" name="LUSE_VDW"> F  </i>
   <i name="Zab_VDW">     -0.84910000</i>
   <i name="PARAM1">      0.12340000</i>
   <i name="PARAM2">      1.00000000</i>
   <i name="PARAM3">      0.00000000</i>
  </separator>
  <separator name="model GW" >
   <i type="int" name="MODEL_GW">     0</i>
   <i name="MODEL_EPS0">     12.24387158</i>
   <i name="MODEL_ALPHA">      1.00000000</i>
  </separator>
  <separator name="linear response parameters" >
   <i type="logical" name="LEPSILON"> F  </i>
   <i type="logical" name="LRPA"> F  </i>
   <i type="logical" name="LNABLA"> F  </i>
   <i type="logical" name="LVEL"> F  </i>
   <i type="int" name="KINTER">     0</i>
   <i name="CSHIFT">      0.10000000</i>
   <i name="OMEGAMAX">     -1.00000000</i>
   <i name="DEG_THRESHOLD">      0.00200000</i>
   <i name="RTIME">     -0.10000000</i>
   <i name="WPLASMAI">      0.00000000</i>
   <v name="DFIELD">      0.00000000      0.00000000      0.00000000</v>
   <v name="WPLASMA">      0.00000000      0.00000000      0.00000000      0.00000000      0.00000000      0.00000000      0.00000000      0.00000000      0.00000000</v>
  </separator>
  <separator name="orbital magnetization" >
   <i type="logical" name="NUCIND"> F  </i>
   <v name="MAGPOS">      0.00000000      0.00000000      0.00000000</v>
   <i type="logical" name="LNICSALL"> T  </i>
   <i type="logical" name="ORBITALMAG"> F  </i>
   <i type="logical" name="LMAGBLOCH"> F  </i>
   <i type="logical" name="LCHIMAG"> F  </i>
   <i type="logical" name="LGAUGE"> T  </i>
   <i type="int" name="MAGATOM">     0</i>
   <v name="MAGDIPOL">      0.00000000      0.00000000      0.00000000</v>
   <v name="AVECCONST">      0.00000000      0.00000000      0.00000000</v>
  </separator>
  <separator name="response functions" >
   <i type="logical" name="LFINITE_TEMPERATURE"> F  </i>
   <i type="logical" name="LADDER"> F  </i>
   <i type="logical" name="LRPAFORCE"> F  </i>
   <i type="logical" name="LFXC"> F  </i>
   <i type="logical" name="LHARTREE"> T  </i>
   <i type="int" name="IBSE">     0</i>
   <v type="int" name="KPOINT">    -1     0     0     0</v>
   <i type="logical" name="LTCTC"> F  </i>
   <i type="logical" name="LTCTE"> F  </i>
   <i type="logical" name="LTETE"> F  </i>
   <i type="logical" name="LTRIPLET"> F  </i>
   <i type="logical" name="LFXCEPS"> F  </i>
   <i type="logical" name="LFXHEG"> F  </i>
   <i type="int" name="NATURALO">     2</i>
   <i type="logical" name="LHOLEGF"> F  </i>
   <i type="logical" name="L2ORDER"> F  </i>
   <i type="logical" name="LDMP1"> F  </i>
   <i type="logical" name="LMP2LT"> F  </i>
   <i type="logical" name="LSMP2LT"> F  </i>
   <i type="logical" name="LGWLF"> F  </i>
   <i name="ENCUTGW">     -2.00000000</i>
   <i name="ENCUTGWSOFT">     -2.00000000</i>
   <i name="ENCUTLF">     -1.00000000</i>
   <i type="logical" name="LESF_SPLINES"> F  </i>
   <i type="int" name="LMAXMP2">    -1</i>
   <i name="SCISSOR">      0.00000000</i>
   <i type="int" name="NOMEGA">     0</i>
   <i type="int" name="NOMEGAR">     0</i>
   <i type="int" name="NBANDSGW">    -1</i>
   <i type="int" name="NBANDSO">    -1</i>
   <i type="int" name="NBANDSV">    -1</i>
   <i type="int" name="NELM">   100</i>
   <i type="int" name="NELMHF">     1</i>
   <i type="int" name="DIM">     3</i>
   <i type="int" name="IESPILON">     4</i>
   <i type="int" name="ANTIRES">     0</i>
   <i name="OMEGAMAX">    -30.00000000</i>
   <i name="OMEGAMIN">    -30.00000000</i>
   <i name="OMEGATL">   -200.00000000</i>
   <i type="int" name="OMEGAGRID">     0</i>
   <i name="CSHIFT">     -0.10000000</i>
   <i type="logical" name="LSELFENERGY"> F  </i>
   <i type="logical" name="LSPECTRAL"> F  </i>
   <i type="logical" name="LSPECTRALGW"> F  </i>
   <i type="logical" name="LSINGLES"> F  </i>
   <i type="logical" name="LFERMIGW"> F  </i>
   <i type="logical" name="ODDONLYGW"> F  </i>
   <i type="logical" name="EVENONLYGW"> F  </i>
   <i type="int" name="NKREDLFX">     1</i>
   <i type="int" name="NKREDLFY">     1</i>
   <i type="int" name="NKREDLFZ">     1</i>
   <i type="int" name="MAXMEM">  2800</i>
   <i type="int" name="TELESCOPE">     0</i>
   <i type="int" name="NTAUPAR">    -1</i>
   <i type="int" name="NOMEGAPAR">    -1</i>
   <i name="DAMP_NEWTON">      0.80000001</i>
   <i name="LAMBDA">      1.00000000</i>
  </separator>
  <separator name="External order field" >
   <i name="OFIELD_KAPPA">      0.00000000</i>
   <v name="OFIELD_K">      0.00000000      0.00000000      0.00000000</v>
   <i name="OFIELD_Q6_NEAR">      0.00000000</i>
   <i name="OFIELD_Q6_FAR">      0.00000000</i>
   <i name="OFIELD_A">      0.00000000</i>
  </separator>
 </parameters>
 <atominfo>
  <atoms>       8 </atoms>
  <types>       1 </types>
  <array name="atoms" >
   <dimension dim="1">ion</dimension>
   <field type="string">element</field>
   <field type="int">atomtype</field>
   <set>
    <rc><c>Si</c><c>   1</c></rc>
    <rc><c>Si</c><c>   1</c></rc>
    <rc><c>Si</c><c>   1</c></rc>
    <rc><c>Si</c><c>   1</c></rc>
    <rc><c>Si</c><c>   1</c></rc>
    <rc><c>Si</c><c>   1</c></rc>
    <rc><c>Si</c><c>   1</c></rc>
    <rc><c>Si</c><c>   1</c></rc>
   </set>
  </array>
  <array name="atomtypes" >
   <dimension dim="1">type</dimension>
   <field type="int">atomspertype</field>
   <field type="string">element</field>
   <field>mass</field>
   <field>valence</field>
   <field type="string">pseudopotential</field>
   <set>
    <rc><c>   8</c><c>Si</c><c>     28.08500000</c><c>      4.00000000</c><c> PAW_PBE Si 05Jan2001                   </c></rc>
   </set>
  </array>
 </atominfo>
 <structure name="initialpos" >
  <crystal>
   <varray name="basis" >
    <v>       5.33201000       0.00000000       0.00000000 </v>
    <v>       0.00000000       5.33201000       0.00000000 </v>
    <v>       0.00000000       0.00000000       5.74216400 </v>
   </varray>
   <i name="volume">    163.25162111 </i>
   <varray name="rec_basis" >
    <v>       0.18754653       0.00000000       0.00000000 </v>
    <v>       0.00000000       0.18754653       0.00000000 </v>
    <v>       0.00000000       0.00000000       0.17415037 </v>
   </varray>
  </crystal>
  <varray name="positions" >
   <v>       0.25000000       0.75000000       0.25000000 </v>
   <v>       0.00000000       0.00000000       0.50000000 </v>
   <v>       0.25000000       0.25000000       0.75000000 </v>
   <v>       0.00000000       0.50000000       0.00000000 </v>
   <v>       0.75000000       0.75000000       0.75000000 </v>
   <v>       0.50000000       0.00000000       0.00000000 </v>
   <v>       0.75000000       0.25000000       0.25000000 </v>
   <v>       0.50000000       0.50000000       0.50000000 </v>
  </varray>
 </structure>
 <calculation>
  <scstep>
   <time name="dav">    0.31    0.31</time>
   <time name="total">    0.68    0.68</time>
   <energy>
    <i name="alphaZ">     13.19703292 </i>
    <i name="ewald">   -909.09641495 </i>
    <i name="hartreedc">    -44.82038666 </i>
    <i name="XCdc">    -74.41708605 </i>
    <i name="pawpsdc">    263.66839707 </i>
    <i name="pawaedc">   -122.90348290 </i>
    <i name="eentropy">      0.00000000 </i>
    <i name="bandstr">    107.37939850 </i>
    <i name="atom">    824.53081094 </i>
    <i name="e_fr_energy">     57.53826886 </i>
    <i name="e_wo_entrp">     57.53826886 </i>
    <i name="e_0_energy">     57.53826886 </i>
   </energy>
  </scstep>
  <scstep>
   <time name="dav">    0.48    0.49</time>
   <time name="total">    0.49    0.49</time>
   <energy>
    <i name="e_fr_energy">    -41.47402488 </i>
    <i name="e_wo_entrp">    -41.47402488 </i>
    <i name="e_0_energy">    -41.47402488 </i>
   </energy>
  </scstep>
  <scstep>
   <time name="dav">    0.49    0.49</time>
   <time name="total">    0.49    0.50</time>
   <energy>
    <i name="e_fr_energy">    -43.11766678 </i>
    <i name="e_wo_entrp">    -43.11766678 </i>
    <i name="e_0_energy">    -43.11766678 </i>
   </energy>
  </scstep>
  <scstep>
   <time name="dav">    0.63    0.63</time>
   <time name="total">    0.63    0.64</time>
   <energy>
    <i name="e_fr_energy">    -43.12731740 </i>
    <i name="e_wo_entrp">    -43.12731740 </i>
    <i name="e_0_energy">    -43.12731740 </i>
   </energy>
  </scstep>
  <scstep>
   <time name="dav">    0.44    0.44</time>
   <time name="total">    0.50    0.50</time>
   <energy>
    <i name="e_fr_energy">    -43.12732110 </i>
    <i name="e_wo_entrp">    -43.12732110 </i>
    <i name="e_0_energy">    -43.12732110 </i>
   </energy>
  </scstep>
  <scstep>
   <time name="diag">    0.05    0.05</time>
   <time name="diis">    0.13    0.13</time>
   <time name="orth">    0.01    0.01</time>
   <time name="total">    0.58    0.59</time>
   <energy>
    <i name="e_fr_energy">    -43.35652829 </i>
    <i name="e_wo_entrp">    -43.35652829 </i>
    <i name="e_0_energy">    -43.35652829 </i>
   </energy>
  </scstep>
  <scstep>
   <time name="diag">    0.05    0.05</time>
   <time name="diis">    0.26    0.26</time>
   <time name="orth">    0.04    0.04</time>
   <time name="total">    0.76    0.77</time>
   <energy>
    <i name="e_fr_energy">    -43.19446823 </i>
    <i name="e_wo_entrp">    -43.19446823 </i>
    <i name="e_0_energy">    -43.19446823 </i>
   </energy>
  </scstep>
  <scstep>
   <time name="diag">    0.05    0.05</time>
   <time name="diis">    0.13    0.13</time>
   <time name="orth">    0.01    0.01</time>
   <time name="total">    0.59    0.59</time>
   <energy>
    <i name="e_fr_energy">    -43.19839107 </i>
    <i name="e_wo_entrp">    -43.19839107 </i>
    <i name="e_0_energy">    -43.19839107 </i>
   </energy>
  </scstep>
  <scstep>
   <time name="diag">    0.04    0.05</time>
   <time name="diis">    0.13    0.13</time>
   <time name="orth">    0.01    0.01</time>
   <time name="total">    0.56    0.57</time>
   <energy>
    <i name="e_fr_energy">    -43.19537441 </i>
    <i name="e_wo_entrp">    -43.19537441 </i>
    <i name="e_0_energy">    -43.19537441 </i>
   </energy>
  </scstep>
  <scstep>
   <time name="diag">    0.05    0.05</time>
   <time name="diis">    0.14    0.14</time>
   <time name="orth">    0.01    0.01</time>
   <time name="total">    0.57    0.58</time>
   <energy>
    <i name="e_fr_energy">    -43.19608497 </i>
    <i name="e_wo_entrp">    -43.19608497 </i>
    <i name="e_0_energy">    -43.19608497 </i>
   </energy>
  </scstep>
  <scstep>
   <time name="diag">    0.05    0.05</time>
   <time name="diis">    0.12    0.12</time>
   <time name="orth">    0.01    0.01</time>
   <time name="total">    0.56    0.56</time>
   <energy>
    <i name="e_fr_energy">    -43.19660534 </i>
    <i name="e_wo_entrp">    -43.19660534 </i>
    <i name="e_0_energy">    -43.19660534 </i>
   </energy>
  </scstep>
  <scstep>
   <time name="diag">    0.05    0.05</time>
   <time name="diis">    0.11    0.12</time>
   <time name="orth">    0.01    0.01</time>
   <time name="total">    0.49    0.49</time>
   <energy>
    <i name="alphaZ">     13.19703292 </i>
    <i name="ewald">   -909.09641495 </i>
    <i name="hartreedc">    -60.06902257 </i>
    <i name="XCdc">    -72.25121596 </i>
    <i name="pawpsdc">    294.23420501 </i>
    <i name="pawaedc">   -154.30140505 </i>
    <i name="eentropy">      0.00000000 </i>
    <i name="bandstr">     20.55932913 </i>
    <i name="atom">    824.53081094 </i>
    <i name="e_fr_energy">    -43.19668053 </i>
    <i name="e_wo_entrp">    -43.19668053 </i>
    <i name="e_0_energy">    -43.19668053 </i>
   </energy>
  </scstep>
  <structure>
   <crystal>
    <varray name="basis" >
     <v>       5.33201000       0.00000000       0.00000000 </v>
     <v>       0.00000000       5.33201000       0.00000000 </v>
     <v>       0.00000000       0.00000000       5.74216400 </v>
    </varray>
    <i name="volume">    163.25162111 </i>
    <varray name="rec_basis" >
     <v>       0.18754653       0.00000000       0.00000000 </v>
     <v>       0.00000000       0.18754653       0.00000000 </v>
     <v>       0.00000000       0.00000000       0.17415037 </v>
    </varray>
   </crystal>
   <varray name="positions" >
    <v>       0.25000000       0.75000000       0.25000000 </v>
    <v>       0.00000000       0.00000000       0.50000000 </v>
    <v>       0.25000000       0.25000000       0.75000000 </v>
    <v>       0.00000000       0.50000000       0.00000000 </v>
    <v>       0.75000000       0.75000000       0.75000000 </v>
    <v>       0.50000000       0.00000000       0.00000000 </v>
    <v>       0.75000000       0.25000000       0.25000000 </v>
    <v>       0.50000000       0.50000000       0.50000000 </v>
   </varray>
  </structure>
  <varray name="forces" >
   <v>      -0.00000000       0.00000000       0.00000000 </v>
   <v>      -0.00000000       0.00000000       0.00000000 </v>
   <v>       0.00000000      -0.00000000      -0.00000000 </v>
   <v>       0.00000000      -0.00000000       0.00000000 </v>
   <v>       0.00000000       0.00000000      -0.00000000 </v>
   <v>      -0.00000000       0.00000000       0.00000000 </v>
   <v>      -0.00000000      -0.00000000       0.00000000 </v>
   <v>       0.00000000      -0.00000000      -0.00000000 </v>
  </varray>
  <varray name="stress" >
   <v>      27.09893500       0.00000000       0.00000000 </v>
   <v>       0.00000000      27.09893500       0.00000000 </v>
   <v>       0.00000000       0.00000000     -53.18308907 </v>
  </varray>
  <energy>
   <i name="e_fr_energy">    -43.19668053 </i>
   <i name="e_wo_entrp">    -43.19668053 </i>
   <i name="e_0_energy">    -43.19668053 </i>
  </energy>
  <time name="totalsc">    9.24    9.37</time>
  <eigenvalues>
   <array>
    <dimension dim="1">band</dimension>
    <dimension dim="2">kpoint</dimension>
    <dimension dim="3">spin</dimension>
    <field>eigene</field>
    <field>occ</field>
    <set>
     <set comment="spin 1">
      <set comment="kpoint 1">
       <r>   -5.9836    1.0000 </r>
       <r>   -3.1599    1.0000 </r>
       <r>   -2.8360    1.0000 </r>
       <r>   -2.8360    1.0000 </r>
       <r>   -1.4198    1.0000 </r>
       <r>   -1.0009    1.0000 </r>
       <r>   -1.0009    1.0000 </r>
       <r>    2.1891    1.0000 </r>
       <r>    2.1891    1.0000 </r>
       <r>    2.5049    1.0000 </r>
       <r>    2.8431    1.0000 </r>
       <r>    2.8431    1.0000 </r>
       <r>    3.3936    1.0000 </r>
       <r>    4.0234    1.0000 </r>
       <r>    5.1739    1.0000 </r>
       <r>    5.5835    1.0000 </r>
       <r>    6.3838    0.0000 </r>
       <r>    6.3838    0.0000 </r>
       <r>    6.9750    0.0000 </r>
       <r>    7.4105    0.0000 </r>
       <r>    7.4105    0.0000 </r>
       <r>    8.0063    0.0000 </r>
       <r>    8.1076    0.0000 </r>
       <r>    8.5676    0.0000 </r>
      </set>
      <set comment="kpoint 2">
       <r>   -5.4318    1.0000 </r>
       <r>   -4.3571    1.0000 </r>
       <r>   -2.8982    1.0000 </r>
       <r>   -2.7377    1.0000 </r>
       <r>   -1.3700    1.0000 </r>
       <r>   -1.2322    1.0000 </r>
       <r>    0.8171    1.0000 </r>
       <r>    1.6319    1.0000 </r>
       <r>    1.6689    1.0000 </r>
       <r>    2.4554    1.0000 </r>
       <r>    2.6456    1.0000 </r>
       <r>    2.9641    1.0000 </r>
       <r>    2.9835    1.0000 </r>
       <r>    3.3565    1.0000 </r>
       <r>    4.1544    1.0000 </r>
       <r>    4.5680    1.0000 </r>
       <r>    6.8222    0.0000 </r>
       <r>    7.6107    0.0000 </r>
       <r>    7.9898    0.0000 </r>
       <r>    8.4378    0.0000 </r>
       <r>    8.5533    0.0000 </r>
       <r>    9.1232    0.0000 </r>
       <r>    9.7810    0.0000 </r>
       <r>   10.1609    0.0000 </r>
      </set>
      <set comment="kpoint 3">
       <r>   -4.9149    1.0000 </r>
       <r>   -3.9435    1.0000 </r>
       <r>   -3.9435    1.0000 </r>
       <r>   -3.3031    1.0000 </r>
       <r>   -1.0856    1.0000 </r>
       <r>   -0.2388    1.0000 </r>
       <r>   -0.2388    1.0000 </r>
       <r>    0.9828    1.0000 </r>
       <r>    1.4907    1.0000 </r>
       <r>    2.1506    1.0000 </r>
       <r>    2.1506    1.0000 </r>
       <r>    3.1059    1.0000 </r>
       <r>    3.9931    1.0000 </r>
       <r>    3.9931    1.0000 </r>
       <r>    4.1930    1.0000 </r>
       <r>    5.2370    1.0000 </r>
       <r>    7.9368    0.0000 </r>
       <r>    8.4059    0.0000 </r>
       <r>    8.4153    0.0000 </r>
       <r>    8.4153    0.0000 </r>
       <r>    9.3110    0.0000 </r>
       <r>    9.3656    0.0000 </r>
       <r>    9.7186    0.0000 </r>
       <r>    9.7189    0.0000 </r>
      </set>
      <set comment="kpoint 4">
       <r>   -5.4973    1.0000 </r>
       <r>   -4.5418    1.0000 </r>
       <r>   -2.6998    1.0000 </r>
       <r>   -2.6998    1.0000 </r>
       <r>   -1.1217    1.0000 </r>
       <r>   -1.1217    1.0000 </r>
       <r>    0.4915    1.0000 </r>
       <r>    1.7158    1.0000 </r>
       <r>    1.7158    1.0000 </r>
       <r>    2.3434    1.0000 </r>
       <r>    2.7076    1.0000 </r>
       <r>    2.7076    1.0000 </r>
       <r>    3.1201    1.0000 </r>
       <r>    3.8216    1.0000 </r>
       <r>    4.3164    1.0000 </r>
       <r>    4.6296    1.0000 </r>
       <r>    7.4059    0.0000 </r>
       <r>    7.6055    0.0000 </r>
       <r>    7.6055    0.0000 </r>
       <r>    8.1375    0.0000 </r>
       <r>    8.8313    0.0000 </r>
       <r>    9.1416    0.0000 </r>
       <r>    9.4771    0.0000 </r>
       <r>    9.4777    0.0000 </r>
      </set>
      <set comment="kpoint 5">
       <r>   -4.9716    1.0000 </r>
       <r>   -4.0868    1.0000 </r>
       <r>   -3.9744    1.0000 </r>
       <r>   -3.3196    1.0000 </r>
       <r>   -0.8591    1.0000 </r>
       <r>   -0.1447    1.0000 </r>
       <r>   -0.0781    1.0000 </r>
       <r>    1.0938    1.0000 </r>
       <r>    1.8519    1.0000 </r>
       <r>    2.4510    1.0000 </r>
       <r>    2.5063    1.0000 </r>
       <r>    3.4961    1.0000 </r>
       <r>    3.5999    1.0000 </r>
       <r>    3.6689    1.0000 </r>
       <r>    3.6893    1.0000 </r>
       <r>    4.7205    1.0000 </r>
       <r>    7.2963    0.0000 </r>
       <r>    8.0200    0.0000 </r>
       <r>    8.0505    0.0000 </r>
       <r>    8.7251    0.0000 </r>
       <r>    8.9832    0.0000 </r>
       <r>    9.1200    0.0000 </r>
       <r>    9.2799    0.0000 </r>
       <r>    9.7513    0.0000 </r>
      </set>
      <set comment="kpoint 6">
       <r>   -4.5173    1.0000 </r>
       <r>   -3.8460    1.0000 </r>
       <r>   -3.7888    1.0000 </r>
       <r>   -3.7888    1.0000 </r>
       <r>   -1.0274    1.0000 </r>
       <r>   -1.0274    1.0000 </r>
       <r>   -1.0084    1.0000 </r>
       <r>   -0.2310    1.0000 </r>
       <r>    3.0446    1.0000 </r>
       <r>    3.4531    1.0000 </r>
       <r>    3.4531    1.0000 </r>
       <r>    4.0486    1.0000 </r>
       <r>    4.0486    1.0000 </r>
       <r>    4.2374    1.0000 </r>
       <r>    4.4813    1.0000 </r>
       <r>    4.9198    1.0000 </r>
       <r>    7.0615    0.0000 </r>
       <r>    7.5072    0.0000 </r>
       <r>    7.5072    0.0000 </r>
       <r>    8.1540    0.0000 </r>
       <r>    8.6698    0.0000 </r>
       <r>    9.0376    0.0000 </r>
       <r>    9.2246    0.0000 </r>
       <r>    9.2283    0.0000 </r>
      </set>
     </set>
     <set comment="spin 2">
      <set comment="kpoint 1">
       <r>   -5.9831    1.0000 </r>
       <r>   -3.1592    1.0000 </r>
       <r>   -2.8353    1.0000 </r>
       <r>   -2.8353    1.0000 </r>
       <r>   -1.4191    1.0000 </r>
       <r>   -1.0002    1.0000 </r>
       <r>   -1.0002    1.0000 </r>
       <r>    2.1896    1.0000 </r>
       <r>    2.1896    1.0000 </r>
       <r>    2.5053    1.0000 </r>
       <r>    2.8438    1.0000 </r>
       <r>    2.8438    1.0000 </r>
       <r>    3.3942    1.0000 </r>
       <r>    4.0241    1.0000 </r>
       <r>    5.1748    1.0000 </r>
       <r>    5.5842    1.0000 </r>
       <r>    6.3838    0.0000 </r>
       <r>    6.3838    0.0000 </r>
       <r>    6.9751    0.0000 </r>
       <r>    7.4106    0.0000 </r>
       <r>    7.4106    0.0000 </r>
       <r>    8.0069    0.0000 </r>
       <r>    8.1078    0.0000 </r>
       <r>    8.5678    0.0000 </r>
      </set>
      <set comment="kpoint 2">
       <r>   -5.4312    1.0000 </r>
       <r>   -4.3565    1.0000 </r>
       <r>   -2.8975    1.0000 </r>
       <r>   -2.7370    1.0000 </r>
       <r>   -1.3693    1.0000 </r>
       <r>   -1.2315    1.0000 </r>
       <r>    0.8178    1.0000 </r>
       <r>    1.6323    1.0000 </r>
       <r>    1.6693    1.0000 </r>
       <r>    2.4560    1.0000 </r>
       <r>    2.6461    1.0000 </r>
       <r>    2.9646    1.0000 </r>
       <r>    2.9841    1.0000 </r>
       <r>    3.3572    1.0000 </r>
       <r>    4.1552    1.0000 </r>
       <r>    4.5687    1.0000 </r>
       <r>    6.8223    0.0000 </r>
       <r>    7.6109    0.0000 </r>
       <r>    7.9900    0.0000 </r>
       <r>    8.4379    0.0000 </r>
       <r>    8.5535    0.0000 </r>
       <r>    9.1235    0.0000 </r>
       <r>    9.7809    0.0000 </r>
       <r>   10.1625    0.0000 </r>
      </set>
      <set comment="kpoint 3">
       <r>   -4.9143    1.0000 </r>
       <r>   -3.9428    1.0000 </r>
       <r>   -3.9428    1.0000 </r>
       <r>   -3.3024    1.0000 </r>
       <r>   -1.0850    1.0000 </r>
       <r>   -0.2382    1.0000 </r>
       <r>   -0.2382    1.0000 </r>
       <r>    0.9834    1.0000 </r>
       <r>    1.4912    1.0000 </r>
       <r>    2.1511    1.0000 </r>
       <r>    2.1511    1.0000 </r>
       <r>    3.1065    1.0000 </r>
       <r>    3.9937    1.0000 </r>
       <r>    3.9937    1.0000 </r>
       <r>    4.1937    1.0000 </r>
       <r>    5.2378    1.0000 </r>
       <r>    7.9370    0.0000 </r>
       <r>    8.4063    0.0000 </r>
       <r>    8.4155    0.0000 </r>
       <r>    8.4155    0.0000 </r>
       <r>    9.3114    0.0000 </r>
       <r>    9.3658    0.0000 </r>
       <r>    9.7189    0.0000 </r>
       <r>    9.7191    0.0000 </r>
      </set>
      <set comment="kpoint 4">
       <r>   -5.4967    1.0000 </r>
       <r>   -4.5412    1.0000 </r>
       <r>   -2.6991    1.0000 </r>
       <r>   -2.6991    1.0000 </r>
       <r>   -1.1210    1.0000 </r>
       <r>   -1.1210    1.0000 </r>
       <r>    0.4923    1.0000 </r>
       <r>    1.7162    1.0000 </r>
       <r>    1.7162    1.0000 </r>
       <r>    2.3441    1.0000 </r>
       <r>    2.7082    1.0000 </r>
       <r>    2.7082    1.0000 </r>
       <r>    3.1206    1.0000 </r>
       <r>    3.8222    1.0000 </r>
       <r>    4.3170    1.0000 </r>
       <r>    4.6302    1.0000 </r>
       <r>    7.4060    0.0000 </r>
       <r>    7.6056    0.0000 </r>
       <r>    7.6056    0.0000 </r>
       <r>    8.1378    0.0000 </r>
       <r>    8.8315    0.0000 </r>
       <r>    9.1423    0.0000 </r>
       <r>    9.4771    0.0000 </r>
       <r>    9.4773    0.0000 </r>
      </set>
      <set comment="kpoint 5">
       <r>   -4.9710    1.0000 </r>
       <r>   -4.0862    1.0000 </r>
       <r>   -3.9738    1.0000 </r>
       <r>   -3.3190    1.0000 </r>
       <r>   -0.8585    1.0000 </r>
       <r>   -0.1440    1.0000 </r>
       <r>   -0.0775    1.0000 </r>
       <r>    1.0945    1.0000 </r>
       <r>    1.8523    1.0000 </r>
       <r>    2.4515    1.0000 </r>
       <r>    2.5069    1.0000 </r>
       <r>    3.4967    1.0000 </r>
       <r>    3.6006    1.0000 </r>
       <r>    3.6696    1.0000 </r>
       <r>    3.6899    1.0000 </r>
       <r>    4.7213    1.0000 </r>
       <r>    7.2964    0.0000 </r>
       <r>    8.0203    0.0000 </r>
       <r>    8.0507    0.0000 </r>
       <r>    8.7252    0.0000 </r>
       <r>    8.9834    0.0000 </r>
       <r>    9.1204    0.0000 </r>
       <r>    9.2800    0.0000 </r>
       <r>    9.7510    0.0000 </r>
      </set>
      <set comment="kpoint 6">
       <r>   -4.5167    1.0000 </r>
       <r>   -3.8454    1.0000 </r>
       <r>   -3.7881    1.0000 </r>
       <r>   -3.7881    1.0000 </r>
       <r>   -1.0269    1.0000 </r>
       <r>   -1.0269    1.0000 </r>
       <r>   -1.0078    1.0000 </r>
       <r>   -0.2304    1.0000 </r>
       <r>    3.0452    1.0000 </r>
       <r>    3.4537    1.0000 </r>
       <r>    3.4537    1.0000 </r>
       <r>    4.0493    1.0000 </r>
       <r>    4.0493    1.0000 </r>
       <r>    4.2382    1.0000 </r>
       <r>    4.4820    1.0000 </r>
       <r>    4.9206    1.0000 </r>
       <r>    7.0618    0.0000 </r>
       <r>    7.5074    0.0000 </r>
       <r>    7.5075    0.0000 </r>
       <r>    8.1543    0.0000 </r>
       <r>    8.6701    0.0000 </r>
       <r>    9.0377    0.0000 </r>
       <r>    9.2248    0.0000 </r>
       <r>    9.2379    0.0000 </r>
      </set>
     </set>
    </set>
   </array>
  </eigenvalues>
  <separator name="orbital magnetization" >
   <v name="MAGDIPOLOUT">      0.00000000      0.00000000      0.00000000</v>
  </separator>
  <dos>
   <i name="efermi">      5.58443513 </i>
   <total>
    <array>
     <dimension dim="1">gridpoints</dimension>
     <dimension dim="2">spin</dimension>
     <field>energy</field>
     <field>total</field>
     <field>integrated</field>
     <set>
      <set comment="spin 1">
       <r>    -6.7909     0.0000     0.0000 </r>
       <r>    -6.7317     0.0000     0.0000 </r>
       <r>    -6.6725     0.0000     0.0000 </r>
       <r>    -6.6133     0.0000     0.0000 </r>
       <r>    -6.5541     0.0000     0.0000 </r>
       <r>    -6.4949     0.0000     0.0000 </r>
       <r>    -6.4357     0.0000     0.0000 </r>
       <r>    -6.3765     0.0000     0.0000 </r>
       <r>    -6.3173     0.0000     0.0000 </r>
       <r>    -6.2581     0.0000     0.0000 </r>
       <r>    -6.1989     0.0000     0.0000 </r>
       <r>    -6.1397     0.0000     0.0000 </r>
       <r>    -6.0805     0.0000     0.0000 </r>
       <r>    -6.0213     0.0000     0.0000 </r>
       <r>    -5.9621     0.4563     0.0196 </r>
       <r>    -5.9029     0.2353     0.0323 </r>
       <r>    -5.8437     0.2814     0.0475 </r>
       <r>    -5.7845     0.3306     0.0656 </r>
       <r>    -5.7253     0.3829     0.0867 </r>
       <r>    -5.6661     0.4382     0.1110 </r>
       <r>    -5.6069     0.4967     0.1387 </r>
       <r>    -5.5477     0.5583     0.1699 </r>
       <r>    -5.4885     0.9402     0.2210 </r>
       <r>    -5.4293     1.4075     0.2943 </r>
       <r>    -5.3701     0.9058     0.3472 </r>
       <r>    -5.3109     0.9250     0.4014 </r>
       <r>    -5.2517     0.9372     0.4566 </r>
       <r>    -5.1925     0.9424     0.5122 </r>
       <r>    -5.1333     0.9406     0.5680 </r>
       <r>    -5.0741     0.9319     0.6235 </r>
       <r>    -5.0149     0.9162     0.6782 </r>
       <r>    -4.9557     1.3085     0.7613 </r>
       <r>    -4.8965     0.9431     0.8209 </r>
       <r>    -4.8373     0.5939     0.8586 </r>
       <r>    -4.7780     0.5133     0.8913 </r>
       <r>    -4.7188     0.4376     0.9194 </r>
       <r>    -4.6596     0.3668     0.9432 </r>
       <r>    -4.6004     0.3007     0.9630 </r>
       <r>    -4.5412     0.6643     0.9946 </r>
       <r>    -4.4820     0.5175     1.0279 </r>
       <r>    -4.4228     0.3613     1.0460 </r>
       <r>    -4.3636     0.4842     1.0710 </r>
       <r>    -4.3044     1.7055     1.1638 </r>
       <r>    -4.2452     1.3183     1.2378 </r>
       <r>    -4.1860     1.4380     1.3195 </r>
       <r>    -4.1268     1.5366     1.4076 </r>
       <r>    -4.0676     2.0492     1.5309 </r>
       <r>    -4.0084     1.4441     1.6188 </r>
       <r>    -3.9492     2.8494     1.7531 </r>
       <r>    -3.8900     2.9443     1.9378 </r>
       <r>    -3.8308     1.7422     2.0753 </r>
       <r>    -3.7716     1.5792     2.1847 </r>
       <r>    -3.7124     1.0789     2.2478 </r>
       <r>    -3.6532     1.1108     2.3126 </r>
       <r>    -3.5940     1.1471     2.3794 </r>
       <r>    -3.5348     1.1878     2.4485 </r>
       <r>    -3.4756     1.2328     2.5201 </r>
       <r>    -3.4164     1.2821     2.5945 </r>
       <r>    -3.3572     1.3359     2.6720 </r>
       <r>    -3.2980     2.2591     2.8008 </r>
       <r>    -3.2388     1.4908     2.8884 </r>
       <r>    -3.1796     1.5101     2.9772 </r>
       <r>    -3.1204     1.7235     3.0799 </r>
       <r>    -3.0612     1.4830     3.1671 </r>
       <r>    -3.0020     1.5011     3.2554 </r>
       <r>    -2.9428     1.5139     3.3447 </r>
       <r>    -2.8836     3.3227     3.4851 </r>
       <r>    -2.8244     3.1554     3.6734 </r>
       <r>    -2.7652     2.6177     3.8291 </r>
       <r>    -2.7060     1.2527     3.9646 </r>
       <r>    -2.6468     0.5279     4.0000 </r>
       <r>    -2.5876     0.0000     4.0000 </r>
       <r>    -2.5284     0.0000     4.0000 </r>
       <r>    -2.4692     0.0000     4.0000 </r>
       <r>    -2.4100     0.0000     4.0000 </r>
       <r>    -2.3508     0.0000     4.0000 </r>
       <r>    -2.2915     0.0000     4.0000 </r>
       <r>    -2.2323     0.0000     4.0000 </r>
       <r>    -2.1731     0.0000     4.0000 </r>
       <r>    -2.1139     0.0000     4.0000 </r>
       <r>    -2.0547     0.0000     4.0000 </r>
       <r>    -1.9955     0.0000     4.0000 </r>
       <r>    -1.9363     0.0000     4.0000 </r>
       <r>    -1.8771     0.0000     4.0000 </r>
       <r>    -1.8179     0.0000     4.0000 </r>
       <r>    -1.7587     0.0000     4.0000 </r>
       <r>    -1.6995     0.0000     4.0000 </r>
       <r>    -1.6403     0.0000     4.0000 </r>
       <r>    -1.5811     0.0000     4.0000 </r>
       <r>    -1.5219     0.0000     4.0000 </r>
       <r>    -1.4627     0.0000     4.0000 </r>
       <r>    -1.4035     2.0124     4.0409 </r>
       <r>    -1.3443     1.7661     4.1762 </r>
       <r>    -1.2851     1.3407     4.2527 </r>
       <r>    -1.2259     2.5222     4.3692 </r>
       <r>    -1.1667     2.2780     4.4956 </r>
       <r>    -1.1075     3.5188     4.6763 </r>
       <r>    -1.0483     3.8203     4.8884 </r>
       <r>    -0.9891     4.2238     5.1682 </r>
       <r>    -0.9299     2.5551     5.3296 </r>
       <r>    -0.8707     2.2371     5.4713 </r>
       <r>    -0.8115     1.6725     5.5826 </r>
       <r>    -0.7523     1.1466     5.6505 </r>
       <r>    -0.6931     1.1474     5.7184 </r>
       <r>    -0.6339     1.1470     5.7863 </r>
       <r>    -0.5747     1.1453     5.8541 </r>
       <r>    -0.5155     1.1425     5.9219 </r>
       <r>    -0.4563     1.1385     5.9894 </r>
       <r>    -0.3971     1.1333     6.0567 </r>
       <r>    -0.3379     1.1268     6.1236 </r>
       <r>    -0.2787     1.1192     6.1901 </r>
       <r>    -0.2195     1.8626     6.3019 </r>
       <r>    -0.1603     0.9833     6.3626 </r>
       <r>    -0.1011     1.2464     6.4400 </r>
       <r>    -0.0419     1.3882     6.5191 </r>
       <r>     0.0173     0.8580     6.5699 </r>
       <r>     0.0765     0.8534     6.6206 </r>
       <r>     0.1358     0.8466     6.6709 </r>
       <r>     0.1950     0.8375     6.7208 </r>
       <r>     0.2542     0.8263     6.7701 </r>
       <r>     0.3134     0.8128     6.8186 </r>
       <r>     0.3726     0.7971     6.8663 </r>
       <r>     0.4318     0.7791     6.9129 </r>
       <r>     0.4910     0.7589     6.9585 </r>
       <r>     0.5502     0.8590     7.0104 </r>
       <r>     0.6094     0.5641     7.0447 </r>
       <r>     0.6686     0.5354     7.0772 </r>
       <r>     0.7278     0.5091     7.1081 </r>
       <r>     0.7870     0.4851     7.1375 </r>
       <r>     0.8462     0.7983     7.1910 </r>
       <r>     0.9054     0.2844     7.2074 </r>
       <r>     0.9646     0.2986     7.2246 </r>
       <r>     1.0238     0.6683     7.2617 </r>
       <r>     1.0830     0.4526     7.2870 </r>
       <r>     1.1422     1.2073     7.3556 </r>
       <r>     1.2014     0.7017     7.3965 </r>
       <r>     1.2606     0.7199     7.4386 </r>
       <r>     1.3198     0.7340     7.4817 </r>
       <r>     1.3790     0.7439     7.5254 </r>
       <r>     1.4382     0.7497     7.5697 </r>
       <r>     1.4974     1.4052     7.6323 </r>
       <r>     1.5566     1.3332     7.7053 </r>
       <r>     1.6158     1.5681     7.7910 </r>
       <r>     1.6750     2.8248     7.9501 </r>
       <r>     1.7342     3.2140     8.1116 </r>
       <r>     1.7934     2.6277     8.2694 </r>
       <r>     1.8526     2.0411     8.4512 </r>
       <r>     1.9118     1.3480     8.5359 </r>
       <r>     1.9710     1.1885     8.6109 </r>
       <r>     2.0302     1.0349     8.6767 </r>
       <r>     2.0894     0.8871     8.7336 </r>
       <r>     2.1486     0.7451     8.7819 </r>
       <r>     2.2078     1.8979     8.9046 </r>
       <r>     2.2670     1.0556     8.9606 </r>
       <r>     2.3262     1.3150     9.0305 </r>
       <r>     2.3854     3.3406     9.1795 </r>
       <r>     2.4446     4.4960     9.4028 </r>
       <r>     2.5038     4.8948     9.7853 </r>
       <r>     2.5630     3.4118     9.9764 </r>
       <r>     2.6223     2.8741    10.1395 </r>
       <r>     2.6815     3.1568    10.3358 </r>
       <r>     2.7407     3.0835    10.5219 </r>
       <r>     2.7999     2.2749    10.6645 </r>
       <r>     2.8591     2.4290    10.8205 </r>
       <r>     2.9183     2.0725    10.9382 </r>
       <r>     2.9775     2.6930    11.0965 </r>
       <r>     3.0367     3.0805    11.2770 </r>
       <r>     3.0959     2.7285    11.4395 </r>
       <r>     3.1551     2.8365    11.6058 </r>
       <r>     3.2143     2.2819    11.7417 </r>
       <r>     3.2735     2.2465    11.8758 </r>
       <r>     3.3327     2.2024    12.0075 </r>
       <r>     3.3919     3.2442    12.1863 </r>
       <r>     3.4511     2.7145    12.3475 </r>
       <r>     3.5103     3.2959    12.5450 </r>
       <r>     3.5695     2.2718    12.6785 </r>
       <r>     3.6287     2.7648    12.8430 </r>
       <r>     3.6879     3.3513    13.0193 </r>
       <r>     3.7471     3.7037    13.2393 </r>
       <r>     3.8063     3.1455    13.4264 </r>
       <r>     3.8655     3.0678    13.6150 </r>
       <r>     3.9247     2.6754    13.7773 </r>
       <r>     3.9839     2.5267    13.9314 </r>
       <r>     4.0431     3.1603    14.1362 </r>
       <r>     4.1023     1.9982    14.2599 </r>
       <r>     4.1615     4.2233    14.3942 </r>
       <r>     4.2207     1.7022    14.5568 </r>
       <r>     4.2799     1.3334    14.6431 </r>
       <r>     4.3391     1.1454    14.7171 </r>
       <r>     4.3983     0.7418    14.7652 </r>
       <r>     4.4575     0.6063    14.8051 </r>
       <r>     4.5167     0.6114    14.8471 </r>
       <r>     4.5759     1.5783    14.9035 </r>
       <r>     4.6351     2.7755    15.0070 </r>
       <r>     4.6943     2.8860    15.1682 </r>
       <r>     4.7535     2.4191    15.3401 </r>
       <r>     4.8127     1.7118    15.4468 </r>
       <r>     4.8719     1.5246    15.5427 </r>
       <r>     4.9311     1.3925    15.6405 </r>
       <r>     4.9903     1.0070    15.7037 </r>
       <r>     5.0495     0.8912    15.7598 </r>
       <r>     5.1088     0.7813    15.8093 </r>
       <r>     5.1680     0.6773    15.8525 </r>
       <r>     5.2272     0.7584    15.9004 </r>
       <r>     5.2864     0.5192    15.9342 </r>
       <r>     5.3456     0.2174    15.9482 </r>
       <r>     5.4048     0.1824    15.9600 </r>
       <r>     5.4640     0.1503    15.9699 </r>
       <r>     5.5232     0.1211    15.9779 </r>
       <r>     5.5824     0.0948    15.9843 </r>
       <r>     5.6416     0.2639    16.0000 </r>
       <r>     5.7008     0.0000    16.0000 </r>
       <r>     5.7600     0.0000    16.0000 </r>
       <r>     5.8192     0.0000    16.0000 </r>
       <r>     5.8784     0.0000    16.0000 </r>
       <r>     5.9376     0.0000    16.0000 </r>
       <r>     5.9968     0.0000    16.0000 </r>
       <r>     6.0560     0.0000    16.0000 </r>
       <r>     6.1152     0.0000    16.0000 </r>
       <r>     6.1744     0.0000    16.0000 </r>
       <r>     6.2336     0.0000    16.0000 </r>
       <r>     6.2928     0.0000    16.0000 </r>
       <r>     6.3520     0.0000    16.0000 </r>
       <r>     6.4112     0.7990    16.0384 </r>
       <r>     6.4704     0.3207    16.0559 </r>
       <r>     6.5296     0.3744    16.0764 </r>
       <r>     6.5888     0.4324    16.1003 </r>
       <r>     6.6480     0.4947    16.1277 </r>
       <r>     6.7072     0.5612    16.1590 </r>
       <r>     6.7664     0.6320    16.1943 </r>
       <r>     6.8256     1.2373    16.2651 </r>
       <r>     6.8848     0.7927    16.3096 </r>
       <r>     6.9440     0.8781    16.3590 </r>
       <r>     7.0032     1.3500    16.4325 </r>
       <r>     7.0624     1.7627    16.5160 </r>
       <r>     7.1216     1.6198    16.6083 </r>
       <r>     7.1808     1.7303    16.7075 </r>
       <r>     7.2400     1.8304    16.8130 </r>
       <r>     7.2992     2.7491    16.9562 </r>
       <r>     7.3584     1.8482    17.0766 </r>
       <r>     7.4176     1.9458    17.2171 </r>
       <r>     7.4768     1.1962    17.2866 </r>
       <r>     7.5361     2.2278    17.4011 </r>
       <r>     7.5953     2.0639    17.5124 </r>
       <r>     7.6545     3.7603    17.7262 </r>
       <r>     7.7137     2.7605    17.8881 </r>
       <r>     7.7729     2.8060    18.0529 </r>
       <r>     7.8321     2.8414    18.2201 </r>
       <r>     7.8913     2.8664    18.3891 </r>
       <r>     7.9505     3.0578    18.5737 </r>
       <r>     8.0097     4.7784    18.8093 </r>
       <r>     8.0689     2.7875    19.0450 </r>
       <r>     8.1281     1.9648    19.1616 </r>
       <r>     8.1873     2.6184    19.3076 </r>
       <r>     8.2465     2.1377    19.4327 </r>
       <r>     8.3057     2.1957    19.5610 </r>
       <r>     8.3649     2.2647    19.6929 </r>
       <r>     8.4241     6.0252    19.8982 </r>
       <r>     8.4833     2.4933    20.0996 </r>
       <r>     8.5425     1.8143    20.2114 </r>
       <r>     8.6017     2.8474    20.3759 </r>
       <r>     8.6609     2.0902    20.4985 </r>
       <r>     8.7201     2.6211    20.6510 </r>
       <r>     8.7793     2.5116    20.7971 </r>
       <r>     8.8385     2.7956    20.9382 </r>
       <r>     8.8977     2.5092    21.0877 </r>
       <r>     8.9569     2.4314    21.2342 </r>
       <r>     9.0161     1.8330    21.3718 </r>
       <r>     9.0753     3.4608    21.5157 </r>
       <r>     9.1345     9.4005    21.9507 </r>
       <r>     9.1937     2.2096    22.1215 </r>
       <r>     9.2529     4.0823    22.3035 </r>
       <r>     9.3121     3.4284    22.5437 </r>
       <r>     9.3713     2.3694    22.7074 </r>
       <r>     9.4305     2.1083    22.8323 </r>
       <r>     9.4897     2.4797    22.9860 </r>
       <r>     9.5489     1.9566    23.1017 </r>
       <r>     9.6081     1.9551    23.2175 </r>
       <r>     9.6673     1.9472    23.3331 </r>
       <r>     9.7265     3.5051    23.4873 </r>
       <r>     9.7857     2.0285    23.7085 </r>
       <r>     9.8449     0.8827    23.7634 </r>
       <r>     9.9041     0.7938    23.8130 </r>
       <r>     9.9633     0.7063    23.8574 </r>
       <r>    10.0226     0.6200    23.8966 </r>
       <r>    10.0818     0.5351    23.9308 </r>
       <r>    10.1410     0.4514    23.9600 </r>
       <r>    10.2002     0.5279    24.0000 </r>
       <r>    10.2594     0.0000    24.0000 </r>
       <r>    10.3186     0.0000    24.0000 </r>
       <r>    10.3778     0.0000    24.0000 </r>
       <r>    10.4370     0.0000    24.0000 </r>
       <r>    10.4962     0.0000    24.0000 </r>
       <r>    10.5554     0.0000    24.0000 </r>
       <r>    10.6146     0.0000    24.0000 </r>
       <r>    10.6738     0.0000    24.0000 </r>
       <r>    10.7330     0.0000    24.0000 </r>
       <r>    10.7922     0.0000    24.0000 </r>
       <r>    10.8514     0.0000    24.0000 </r>
       <r>    10.9106     0.0000    24.0000 </r>
       <r>    10.9698     0.0000    24.0000 </r>
      </set>
      <set comment="spin 2">
       <r>    -6.7909     0.0000     0.0000 </r>
       <r>    -6.7317     0.0000     0.0000 </r>
       <r>    -6.6725     0.0000     0.0000 </r>
       <r>    -6.6133     0.0000     0.0000 </r>
       <r>    -6.5541     0.0000     0.0000 </r>
       <r>    -6.4949     0.0000     0.0000 </r>
       <r>    -6.4357     0.0000     0.0000 </r>
       <r>    -6.3765     0.0000     0.0000 </r>
       <r>    -6.3173     0.0000     0.0000 </r>
       <r>    -6.2581     0.0000     0.0000 </r>
       <r>    -6.1989     0.0000     0.0000 </r>
       <r>    -6.1397     0.0000     0.0000 </r>
       <r>    -6.0805     0.0000     0.0000 </r>
       <r>    -6.0213     0.0000     0.0000 </r>
       <r>    -5.9621     0.4559     0.0195 </r>
       <r>    -5.9029     0.2349     0.0321 </r>
       <r>    -5.8437     0.2809     0.0474 </r>
       <r>    -5.7845     0.3301     0.0654 </r>
       <r>    -5.7253     0.3823     0.0865 </r>
       <r>    -5.6661     0.4377     0.1108 </r>
       <r>    -5.6069     0.4961     0.1384 </r>
       <r>    -5.5477     0.5577     0.1696 </r>
       <r>    -5.4885     0.9396     0.2206 </r>
       <r>    -5.4293     1.4071     0.2938 </r>
       <r>    -5.3701     0.9055     0.3467 </r>
       <r>    -5.3109     0.9248     0.4009 </r>
       <r>    -5.2517     0.9370     0.4560 </r>
       <r>    -5.1925     0.9423     0.5117 </r>
       <r>    -5.1333     0.9407     0.5675 </r>
       <r>    -5.0741     0.9320     0.6229 </r>
       <r>    -5.0149     0.9164     0.6777 </r>
       <r>    -4.9557     1.3089     0.7608 </r>
       <r>    -4.8965     0.9440     0.8205 </r>
       <r>    -4.8373     0.5947     0.8582 </r>
       <r>    -4.7780     0.5141     0.8910 </r>
       <r>    -4.7188     0.4384     0.9192 </r>
       <r>    -4.6596     0.3675     0.9430 </r>
       <r>    -4.6004     0.3014     0.9628 </r>
       <r>    -4.5412     0.2401     0.9788 </r>
       <r>    -4.4820     0.7804     1.0278 </r>
       <r>    -4.4228     0.3601     1.0458 </r>
       <r>    -4.3636     0.4828     1.0707 </r>
       <r>    -4.3044     1.7038     1.1631 </r>
       <r>    -4.2452     1.3168     1.2370 </r>
       <r>    -4.1860     1.4367     1.3186 </r>
       <r>    -4.1268     1.5356     1.4067 </r>
       <r>    -4.0676     2.0499     1.5300 </r>
       <r>    -4.0084     1.4449     1.6179 </r>
       <r>    -3.9492     2.8416     1.7516 </r>
       <r>    -3.8900     2.9489     1.9363 </r>
       <r>    -3.8308     1.7434     2.0743 </r>
       <r>    -3.7716     1.5789     2.1840 </r>
       <r>    -3.7124     1.0785     2.2471 </r>
       <r>    -3.6532     1.1104     2.3118 </r>
       <r>    -3.5940     1.1466     2.3786 </r>
       <r>    -3.5348     1.1872     2.4477 </r>
       <r>    -3.4756     1.2322     2.5193 </r>
       <r>    -3.4164     1.2815     2.5937 </r>
       <r>    -3.3572     1.3352     2.6711 </r>
       <r>    -3.2980     2.2588     2.7998 </r>
       <r>    -3.2388     1.4905     2.8874 </r>
       <r>    -3.1796     1.5099     2.9762 </r>
       <r>    -3.1204     1.7231     3.0789 </r>
       <r>    -3.0612     1.4827     3.1661 </r>
       <r>    -3.0020     1.5009     3.2544 </r>
       <r>    -2.9428     1.5137     3.3437 </r>
       <r>    -2.8836     3.3269     3.4832 </r>
       <r>    -2.8244     3.1547     3.6716 </r>
       <r>    -2.7652     2.6179     3.8273 </r>
       <r>    -2.7060     1.2657     3.9641 </r>
       <r>    -2.6468     0.5279     4.0000 </r>
       <r>    -2.5876     0.0000     4.0000 </r>
       <r>    -2.5284     0.0000     4.0000 </r>
       <r>    -2.4692     0.0000     4.0000 </r>
       <r>    -2.4100     0.0000     4.0000 </r>
       <r>    -2.3508     0.0000     4.0000 </r>
       <r>    -2.2915     0.0000     4.0000 </r>
       <r>    -2.2323     0.0000     4.0000 </r>
       <r>    -2.1731     0.0000     4.0000 </r>
       <r>    -2.1139     0.0000     4.0000 </r>
       <r>    -2.0547     0.0000     4.0000 </r>
       <r>    -1.9955     0.0000     4.0000 </r>
       <r>    -1.9363     0.0000     4.0000 </r>
       <r>    -1.8771     0.0000     4.0000 </r>
       <r>    -1.8179     0.0000     4.0000 </r>
       <r>    -1.7587     0.0000     4.0000 </r>
       <r>    -1.6995     0.0000     4.0000 </r>
       <r>    -1.6403     0.0000     4.0000 </r>
       <r>    -1.5811     0.0000     4.0000 </r>
       <r>    -1.5219     0.0000     4.0000 </r>
       <r>    -1.4627     0.0000     4.0000 </r>
       <r>    -1.4035     1.9954     4.0397 </r>
       <r>    -1.3443     1.7649     4.1753 </r>
       <r>    -1.2851     1.3400     4.2517 </r>
       <r>    -1.2259     2.5191     4.3678 </r>
       <r>    -1.1667     2.2751     4.4941 </r>
       <r>    -1.1075     3.5169     4.6743 </r>
       <r>    -1.0483     3.8201     4.8861 </r>
       <r>    -0.9891     4.2273     5.1664 </r>
       <r>    -0.9299     2.5584     5.3280 </r>
       <r>    -0.8707     2.2401     5.4699 </r>
       <r>    -0.8115     1.6724     5.5819 </r>
       <r>    -0.7523     1.1466     5.6497 </r>
       <r>    -0.6931     1.1474     5.7176 </r>
       <r>    -0.6339     1.1470     5.7855 </r>
       <r>    -0.5747     1.1453     5.8534 </r>
       <r>    -0.5155     1.1425     5.9211 </r>
       <r>    -0.4563     1.1385     5.9887 </r>
       <r>    -0.3971     1.1333     6.0559 </r>
       <r>    -0.3379     1.1269     6.1228 </r>
       <r>    -0.2787     1.1192     6.1893 </r>
       <r>    -0.2195     1.8636     6.3012 </r>
       <r>    -0.1603     0.9842     6.3620 </r>
       <r>    -0.1011     1.2461     6.4396 </r>
       <r>    -0.0419     1.3881     6.5185 </r>
       <r>     0.0173     0.8579     6.5694 </r>
       <r>     0.0765     0.8534     6.6200 </r>
       <r>     0.1358     0.8466     6.6704 </r>
       <r>     0.1950     0.8376     6.7202 </r>
       <r>     0.2542     0.8264     6.7695 </r>
       <r>     0.3134     0.8129     6.8180 </r>
       <r>     0.3726     0.7972     6.8657 </r>
       <r>     0.4318     0.7793     6.9124 </r>
       <r>     0.4910     0.7592     6.9579 </r>
       <r>     0.5502     0.8594     7.0100 </r>
       <r>     0.6094     0.5644     7.0443 </r>
       <r>     0.6686     0.5357     7.0768 </r>
       <r>     0.7278     0.5094     7.1078 </r>
       <r>     0.7870     0.4854     7.1372 </r>
       <r>     0.8462     0.7981     7.1908 </r>
       <r>     0.9054     0.2842     7.2072 </r>
       <r>     0.9646     0.2985     7.2245 </r>
       <r>     1.0238     0.6679     7.2614 </r>
       <r>     1.0830     0.4522     7.2868 </r>
       <r>     1.1422     1.2072     7.3552 </r>
       <r>     1.2014     0.7017     7.3961 </r>
       <r>     1.2606     0.7200     7.4382 </r>
       <r>     1.3198     0.7341     7.4813 </r>
       <r>     1.3790     0.7440     7.5250 </r>
       <r>     1.4382     0.7499     7.5693 </r>
       <r>     1.4974     1.4042     7.6317 </r>
       <r>     1.5566     1.3319     7.7047 </r>
       <r>     1.6158     1.5666     7.7903 </r>
       <r>     1.6750     2.8205     7.9494 </r>
       <r>     1.7342     3.2136     8.1104 </r>
       <r>     1.7934     2.6281     8.2682 </r>
       <r>     1.8526     2.0422     8.4505 </r>
       <r>     1.9118     1.3491     8.5352 </r>
       <r>     1.9710     1.1896     8.6103 </r>
       <r>     2.0302     1.0360     8.6762 </r>
       <r>     2.0894     0.8882     8.7331 </r>
       <r>     2.1486     0.7462     8.7815 </r>
       <r>     2.2078     1.8960     8.9042 </r>
       <r>     2.2670     1.0531     8.9600 </r>
       <r>     2.3262     1.3119     9.0298 </r>
       <r>     2.3854     3.3283     9.1776 </r>
       <r>     2.4446     4.4857     9.4002 </r>
       <r>     2.5038     4.9265     9.7839 </r>
       <r>     2.5630     3.4087     9.9750 </r>
       <r>     2.6223     2.8718    10.1380 </r>
       <r>     2.6815     3.1582    10.3343 </r>
       <r>     2.7407     3.0857    10.5203 </r>
       <r>     2.7999     2.2768    10.6631 </r>
       <r>     2.8591     2.4278    10.8193 </r>
       <r>     2.9183     2.0719    10.9369 </r>
       <r>     2.9775     2.6941    11.0953 </r>
       <r>     3.0367     3.0802    11.2755 </r>
       <r>     3.0959     2.7284    11.4381 </r>
       <r>     3.1551     2.8365    11.6044 </r>
       <r>     3.2143     2.2820    11.7404 </r>
       <r>     3.2735     2.2466    11.8745 </r>
       <r>     3.3327     2.2026    12.0062 </r>
       <r>     3.3919     3.2429    12.1846 </r>
       <r>     3.4511     2.7140    12.3459 </r>
       <r>     3.5103     3.2952    12.5435 </r>
       <r>     3.5695     2.2711    12.6770 </r>
       <r>     3.6287     2.7637    12.8415 </r>
       <r>     3.6879     3.3532    13.0174 </r>
       <r>     3.7471     3.7045    13.2372 </r>
       <r>     3.8063     3.1459    13.4243 </r>
       <r>     3.8655     3.0688    13.6131 </r>
       <r>     3.9247     2.6767    13.7755 </r>
       <r>     3.9839     2.5282    13.9297 </r>
       <r>     4.0431     3.1628    14.1346 </r>
       <r>     4.1023     1.9981    14.2588 </r>
       <r>     4.1615     4.2455    14.3916 </r>
       <r>     4.2207     1.7042    14.5558 </r>
       <r>     4.2799     1.3346    14.6424 </r>
       <r>     4.3391     1.1469    14.7165 </r>
       <r>     4.3983     0.7433    14.7647 </r>
       <r>     4.4575     0.6077    14.8046 </r>
       <r>     4.5167     0.6118    14.8468 </r>
       <r>     4.5759     1.5704    14.9027 </r>
       <r>     4.6351     2.7677    15.0053 </r>
       <r>     4.6943     2.8811    15.1661 </r>
       <r>     4.7535     2.4214    15.3387 </r>
       <r>     4.8127     1.7141    15.4456 </r>
       <r>     4.8719     1.5270    15.5416 </r>
       <r>     4.9311     1.3940    15.6396 </r>
       <r>     4.9903     1.0084    15.7029 </r>
       <r>     5.0495     0.8926    15.7592 </r>
       <r>     5.1088     0.7826    15.8087 </r>
       <r>     5.1680     0.6785    15.8519 </r>
       <r>     5.2272     0.7593    15.9000 </r>
       <r>     5.2864     0.5196    15.9341 </r>
       <r>     5.3456     0.2178    15.9481 </r>
       <r>     5.4048     0.1828    15.9599 </r>
       <r>     5.4640     0.1507    15.9698 </r>
       <r>     5.5232     0.1215    15.9778 </r>
       <r>     5.5824     0.0951    15.9842 </r>
       <r>     5.6416     0.2639    16.0000 </r>
       <r>     5.7008     0.0000    16.0000 </r>
       <r>     5.7600     0.0000    16.0000 </r>
       <r>     5.8192     0.0000    16.0000 </r>
       <r>     5.8784     0.0000    16.0000 </r>
       <r>     5.9376     0.0000    16.0000 </r>
       <r>     5.9968     0.0000    16.0000 </r>
       <r>     6.0560     0.0000    16.0000 </r>
       <r>     6.1152     0.0000    16.0000 </r>
       <r>     6.1744     0.0000    16.0000 </r>
       <r>     6.2336     0.0000    16.0000 </r>
       <r>     6.2928     0.0000    16.0000 </r>
       <r>     6.3520     0.0000    16.0000 </r>
       <r>     6.4112     0.7990    16.0384 </r>
       <r>     6.4704     0.3206    16.0559 </r>
       <r>     6.5296     0.3743    16.0764 </r>
       <r>     6.5888     0.4323    16.1003 </r>
       <r>     6.6480     0.4946    16.1277 </r>
       <r>     6.7072     0.5611    16.1589 </r>
       <r>     6.7664     0.6318    16.1942 </r>
       <r>     6.8256     1.2371    16.2651 </r>
       <r>     6.8848     0.7924    16.3095 </r>
       <r>     6.9440     0.8778    16.3590 </r>
       <r>     7.0032     1.3496    16.4324 </r>
       <r>     7.0624     1.7624    16.5157 </r>
       <r>     7.1216     1.6197    16.6081 </r>
       <r>     7.1808     1.7303    16.7073 </r>
       <r>     7.2400     1.8305    16.8128 </r>
       <r>     7.2992     2.7486    16.9560 </r>
       <r>     7.3584     1.8482    17.0763 </r>
       <r>     7.4176     1.9456    17.2169 </r>
       <r>     7.4768     1.1960    17.2865 </r>
       <r>     7.5361     2.2264    17.4008 </r>
       <r>     7.5953     2.0628    17.5121 </r>
       <r>     7.6545     3.7597    17.7257 </r>
       <r>     7.7137     2.7599    17.8875 </r>
       <r>     7.7729     2.8055    18.0523 </r>
       <r>     7.8321     2.8409    18.2195 </r>
       <r>     7.8913     2.8661    18.3885 </r>
       <r>     7.9505     3.0575    18.5731 </r>
       <r>     8.0097     4.7776    18.8085 </r>
       <r>     8.0689     2.7877    19.0446 </r>
       <r>     8.1281     1.9649    19.1612 </r>
       <r>     8.1873     2.6182    19.3071 </r>
       <r>     8.2465     2.1377    19.4322 </r>
       <r>     8.3057     2.1959    19.5604 </r>
       <r>     8.3649     2.2651    19.6924 </r>
       <r>     8.4241     6.0417    19.8973 </r>
       <r>     8.4833     2.4939    20.0992 </r>
       <r>     8.5425     1.8147    20.2111 </r>
       <r>     8.6017     2.8471    20.3755 </r>
       <r>     8.6609     2.0896    20.4981 </r>
       <r>     8.7201     2.6206    20.6505 </r>
       <r>     8.7793     2.5109    20.7966 </r>
       <r>     8.8385     2.7953    20.9376 </r>
       <r>     8.8977     2.5090    21.0871 </r>
       <r>     8.9569     2.4313    21.2336 </r>
       <r>     9.0161     1.8329    21.3714 </r>
       <r>     9.0753     3.4487    21.5148 </r>
       <r>     9.1345     9.4964    21.9472 </r>
       <r>     9.1937     2.2117    22.1209 </r>
       <r>     9.2529     4.0760    22.3008 </r>
       <r>     9.3121     3.4259    22.5410 </r>
       <r>     9.3713     2.3688    22.7047 </r>
       <r>     9.4305     2.1110    22.8296 </r>
       <r>     9.4897     2.4848    22.9836 </r>
       <r>     9.5489     1.9629    23.0997 </r>
       <r>     9.6081     1.9623    23.2159 </r>
       <r>     9.6673     1.9552    23.3319 </r>
       <r>     9.7265     3.5168    23.4864 </r>
       <r>     9.7857     2.0278    23.7078 </r>
       <r>     9.8449     0.8821    23.7627 </r>
       <r>     9.9041     0.7935    23.8123 </r>
       <r>     9.9633     0.7061    23.8567 </r>
       <r>    10.0226     0.6201    23.8959 </r>
       <r>    10.0818     0.5355    23.9301 </r>
       <r>    10.1410     0.4521    23.9593 </r>
       <r>    10.2002     0.5279    24.0000 </r>
       <r>    10.2594     0.0000    24.0000 </r>
       <r>    10.3186     0.0000    24.0000 </r>
       <r>    10.3778     0.0000    24.0000 </r>
       <r>    10.4370     0.0000    24.0000 </r>
       <r>    10.4962     0.0000    24.0000 </r>
       <r>    10.5554     0.0000    24.0000 </r>
       <r>    10.6146     0.0000    24.0000 </r>
       <r>    10.6738     0.0000    24.0000 </r>
       <r>    10.7330     0.0000    24.0000 </r>
       <r>    10.7922     0.0000    24.0000 </r>
       <r>    10.8514     0.0000    24.0000 </r>
       <r>    10.9106     0.0000    24.0000 </r>
       <r>    10.9698     0.0000    24.0000 </r>
      </set>
     </set>
    </array>
   </total>
   <partial>
    <array>
     <dimension dim="1">gridpoints</dimension>
     <dimension dim="2">spin</dimension>
     <dimension dim="3">ion</dimension>
     <field>energy</field>
     <field>    s</field>
     <field>   py</field>
     <field>   pz</field>
     <field>   px</field>
     <field>  dxy</field>
     <field>  dyz</field>
     <field>  dz2</field>
     <field>  dxz</field>
     <field>x2-y2</field>
     <set>
      <set comment="ion 1">
       <set comment="spin 1">
        <r>    -6.7909     0.0000     0.0000     0.0000     0.0000     0.0000     0.0000     0.0000     0.0000     0.0000 </r>
        <r>    -6.7317     0.0000     0.0000     0.0000     0.0000     0.0000     0.0000     0.0000     0.0000     0.0000 </r>
        <r>    -6.6725     0.0000     0.0000     0.0000     0.0000     0.0000     0.0000     0.0000     0.0000     0.0000 </r>
        <r>    -6.6133     0.0000     0.0000     0.0000     0.0000     0.0000     0.0000     0.0000     0.0000     0.0000 </r>
        <r>    -6.5541     0.0000     0.0000     0.0000     0.0000     0.0000     0.0000     0.0000     0.0000     0.0000 </r>
        <r>    -6.4949     0.0000     0.0000     0.0000     0.0000     0.0000     0.0000     0.0000     0.0000     0.0000 </r>
        <r>    -6.4357     0.0000     0.0000     0.0000     0.0000     0.0000     0.0000     0.0000     0.0000     0.0000 </r>
        <r>    -6.3765     0.0000     0.0000     0.0000     0.0000     0.0000     0.0000     0.0000     0.0000     0.0000 </r>
        <r>    -6.3173     0.0000     0.0000     0.0000     0.0000     0.0000     0.0000     0.0000     0.0000     0.0000 </r>
        <r>    -6.2581     0.0000     0.0000     0.0000     0.0000     0.0000     0.0000     0.0000     0.0000     0.0000 </r>
        <r>    -6.1989     0.0000     0.0000     0.0000     0.0000     0.0000     0.0000     0.0000     0.0000     0.0000 </r>
        <r>    -6.1397     0.0000     0.0000     0.0000     0.0000     0.0000     0.0000     0.0000     0.0000     0.0000 </r>
        <r>    -6.0805     0.0000     0.0000     0.0000     0.0000     0.0000     0.0000     0.0000     0.0000     0.0000 </r>
        <r>    -6.0213     0.0000     0.0000     0.0000     0.0000     0.0000     0.0000     0.0000     0.0000     0.0000 </r>
        <r>    -5.9621     0.0240     0.0001     0.0001     0.0001     0.0000     0.0000     0.0000     0.0000     0.0000 </r>
        <r>    -5.9029     0.0123     0.0001     0.0001     0.0001     0.0000     0.0000     0.0000     0.0000     0.0000 </r>
        <r>    -5.8437     0.0148     0.0001     0.0001     0.0001     0.0000     0.0000     0.0000     0.0000     0.0000 </r>
        <r>    -5.7845     0.0173     0.0001     0.0002     0.0001     0.0000     0.0000     0.0000     0.0000     0.0000 </r>
        <r>    -5.7253     0.0200     0.0002     0.0002     0.0002     0.0000     0.0000     0.0000     0.0000     0.0000 </r>
        <r>    -5.6661     0.0229     0.0002     0.0002     0.0002     0.0000     0.0000     0.0000     0.0000     0.0000 </r>
        <r>    -5.6069     0.0260     0.0003     0.0003     0.0003     0.0000     0.0000     0.0000     0.0000     0.0000 </r>
        <r>    -5.5477     0.0292     0.0003     0.0003     0.0003     0.0000     0.0000     0.0000     0.0000     0.0000 </r>
        <r>    -5.4885     0.0491     0.0004     0.0009     0.0004     0.0000     0.0000     0.0000     0.0000     0.0000 </r>
        <r>    -5.4293     0.0734     0.0011     0.0007     0.0011     0.0000     0.0000     0.0000     0.0000     0.0000 </r>
        <r>    -5.3701     0.0473     0.0007     0.0007     0.0007     0.0000     0.0000     0.0000     0.0000     0.0000 </r>
        <r>    -5.3109     0.0483     0.0007     0.0007     0.0007     0.0000     0.0000     0.0000     0.0000     0.0000 </r>
        <r>    -5.2517     0.0489     0.0007     0.0007     0.0007     0.0000     0.0000     0.0000     0.0000     0.0000 </r>
        <r>    -5.1925     0.0492     0.0008     0.0008     0.0008     0.0000     0.0000     0.0000     0.0000     0.0000 </r>
        <r>    -5.1333     0.0491     0.0008     0.0008     0.0008     0.0000     0.0000     0.0000     0.0000     0.0000 </r>
        <r>    -5.0741     0.0486     0.0008     0.0008     0.0008     0.0000     0.0000     0.0000     0.0000     0.0000 </r>
        <r>    -5.0149     0.0478     0.0008     0.0008     0.0008     0.0000     0.0000     0.0000     0.0000     0.0000 </r>
        <r>    -4.9557     0.0682     0.0012     0.0014     0.0012     0.0000     0.0000     0.0000     0.0000     0.0000 </r>
        <r>    -4.8965     0.0493     0.0010     0.0007     0.0010     0.0000     0.0000     0.0000     0.0000     0.0000 </r>
        <r>    -4.8373     0.0311     0.0006     0.0006     0.0006     0.0000     0.0000     0.0000     0.0000     0.0000 </r>
        <r>    -4.7780     0.0269     0.0005     0.0005     0.0005     0.0000     0.0000     0.0000     0.0000     0.0000 </r>
        <r>    -4.7188     0.0230     0.0005     0.0004     0.0005     0.0000     0.0000     0.0000     0.0000     0.0000 </r>
        <r>    -4.6596     0.0193     0.0004     0.0004     0.0004     0.0000     0.0000     0.0000     0.0000     0.0000 </r>
        <r>    -4.6004     0.0158     0.0003     0.0003     0.0003     0.0000     0.0000     0.0000     0.0000     0.0000 </r>
        <r>    -4.5412     0.0342     0.0003     0.0021     0.0003     0.0000     0.0000     0.0000     0.0000     0.0000 </r>
        <r>    -4.4820     0.0269     0.0004     0.0013     0.0004     0.0000     0.0000     0.0000     0.0000     0.0000 </r>
        <r>    -4.4228     0.0185     0.0002     0.0013     0.0002     0.0000     0.0000     0.0000     0.0000     0.0000 </r>
        <r>    -4.3636     0.0248     0.0004     0.0017     0.0004     0.0000     0.0000     0.0000     0.0000     0.0000 </r>
        <r>    -4.3044     0.0876     0.0028     0.0027     0.0028     0.0000     0.0000     0.0000     0.0000     0.0000 </r>
        <r>    -4.2452     0.0678     0.0017     0.0031     0.0017     0.0000     0.0000     0.0000     0.0000     0.0000 </r>
        <r>    -4.1860     0.0741     0.0018     0.0035     0.0018     0.0000     0.0000     0.0000     0.0000     0.0000 </r>
        <r>    -4.1268     0.0793     0.0019     0.0038     0.0019     0.0000     0.0000     0.0000     0.0000     0.0000 </r>
        <r>    -4.0676     0.1063     0.0022     0.0058     0.0022     0.0000     0.0000     0.0000     0.0000     0.0000 </r>
        <r>    -4.0084     0.0752     0.0018     0.0037     0.0018     0.0000     0.0000     0.0000     0.0000     0.0000 </r>
        <r>    -3.9492     0.1493     0.0046     0.0050     0.0046     0.0000     0.0000     0.0000     0.0000     0.0000 </r>
        <r>    -3.8900     0.1554     0.0048     0.0050     0.0048     0.0000     0.0000     0.0000     0.0000     0.0000 </r>
        <r>    -3.8308     0.0923     0.0027     0.0035     0.0027     0.0000     0.0000     0.0000     0.0000     0.0000 </r>
        <r>    -3.7716     0.0840     0.0025     0.0031     0.0025     0.0000     0.0000     0.0000     0.0000     0.0000 </r>
        <r>    -3.7124     0.0566     0.0018     0.0026     0.0018     0.0000     0.0000     0.0000     0.0000     0.0000 </r>
        <r>    -3.6532     0.0583     0.0019     0.0027     0.0019     0.0000     0.0000     0.0000     0.0000     0.0000 </r>
        <r>    -3.5940     0.0603     0.0020     0.0027     0.0020     0.0000     0.0000     0.0000     0.0000     0.0000 </r>
        <r>    -3.5348     0.0625     0.0021     0.0028     0.0021     0.0000     0.0000     0.0000     0.0000     0.0000 </r>
        <r>    -3.4756     0.0650     0.0022     0.0029     0.0022     0.0000     0.0000     0.0000     0.0000     0.0000 </r>
        <r>    -3.4164     0.0676     0.0023     0.0030     0.0023     0.0000     0.0000     0.0000     0.0000     0.0000 </r>
        <r>    -3.3572     0.0705     0.0025     0.0031     0.0025     0.0000     0.0000     0.0000     0.0000     0.0000 </r>
        <r>    -3.2980     0.1199     0.0043     0.0052     0.0043     0.0000     0.0000     0.0000     0.0000     0.0000 </r>
        <r>    -3.2388     0.0785     0.0031     0.0034     0.0031     0.0000     0.0000     0.0000     0.0000     0.0000 </r>
        <r>    -3.1796     0.0795     0.0032     0.0034     0.0032     0.0000     0.0000     0.0000     0.0000     0.0000 </r>
        <r>    -3.1204     0.0899     0.0034     0.0051     0.0034     0.0000     0.0000     0.0000     0.0000     0.0000 </r>
        <r>    -3.0612     0.0781     0.0035     0.0030     0.0035     0.0000     0.0000     0.0000     0.0000     0.0000 </r>
[...]
        <r>  0.0063  0.0139  0.0107  0.0025  0.0000  0.0000  0.0000  0.0000  0.0000 </r>
        <r>  0.0063  0.0139  0.0106  0.0025  0.0000  0.0000  0.0000  0.0000  0.0000 </r>
        <r>  0.0061  0.0135  0.0104  0.0026  0.0000  0.0000  0.0000  0.0000  0.0000 </r>
        <r>  0.0061  0.0135  0.0106  0.0025  0.0000  0.0000  0.0000  0.0000  0.0000 </r>
        <r>  0.0063  0.0137  0.0109  0.0025  0.0000  0.0000  0.0000  0.0000  0.0000 </r>
        <r>  0.0062  0.0137  0.0108  0.0026  0.0000  0.0000  0.0000  0.0000  0.0000 </r>
       </set>
      </set>
      <set comment="kpoint 6">
       <set comment="band 1">
        <r>  0.0529  0.0011  0.0012  0.0011  0.0000  0.0000  0.0000  0.0000  0.0000 </r>
        <r>  0.0529  0.0011  0.0012  0.0011  0.0000  0.0000  0.0000  0.0000  0.0000 </r>
        <r>  0.0529  0.0011  0.0012  0.0011  0.0000  0.0000  0.0000  0.0000  0.0000 </r>
        <r>  0.0529  0.0011  0.0012  0.0011  0.0000  0.0000  0.0000  0.0000  0.0000 </r>
        <r>  0.0529  0.0011  0.0012  0.0011  0.0000  0.0000  0.0000  0.0000  0.0000 </r>
        <r>  0.0529  0.0011  0.0012  0.0011  0.0000  0.0000  0.0000  0.0000  0.0000 </r>
        <r>  0.0529  0.0011  0.0012  0.0011  0.0000  0.0000  0.0000  0.0000  0.0000 </r>
        <r>  0.0529  0.0011  0.0012  0.0011  0.0000  0.0000  0.0000  0.0000  0.0000 </r>
       </set>
       <set comment="band 2">
        <r>  0.0544  0.0009  0.0024  0.0009  0.0000  0.0000  0.0000  0.0000  0.0000 </r>
        <r>  0.0544  0.0009  0.0024  0.0009  0.0000  0.0000  0.0000  0.0000  0.0000 </r>
        <r>  0.0544  0.0009  0.0024  0.0009  0.0000  0.0000  0.0000  0.0000  0.0000 </r>
        <r>  0.0544  0.0009  0.0024  0.0009  0.0000  0.0000  0.0000  0.0000  0.0000 </r>
        <r>  0.0544  0.0009  0.0024  0.0009  0.0000  0.0000  0.0000  0.0000  0.0000 </r>
        <r>  0.0544  0.0009  0.0024  0.0009  0.0000  0.0000  0.0000  0.0000  0.0000 </r>
        <r>  0.0544  0.0009  0.0024  0.0009  0.0000  0.0000  0.0000  0.0000  0.0000 </r>
        <r>  0.0544  0.0009  0.0024  0.0009  0.0000  0.0000  0.0000  0.0000  0.0000 </r>
       </set>
       <set comment="band 3">
        <r>  0.0542  0.0027  0.0010  0.0004  0.0000  0.0000  0.0000  0.0000  0.0000 </r>
        <r>  0.0556  0.0026  0.0010  0.0004  0.0000  0.0000  0.0000  0.0000  0.0000 </r>
        <r>  0.0556  0.0011  0.0010  0.0019  0.0000  0.0000  0.0000  0.0000  0.0000 </r>
        <r>  0.0542  0.0011  0.0010  0.0019  0.0000  0.0000  0.0000  0.0000  0.0000 </r>
        <r>  0.0556  0.0011  0.0010  0.0019  0.0000  0.0000  0.0000  0.0000  0.0000 </r>
        <r>  0.0542  0.0011  0.0010  0.0019  0.0000  0.0000  0.0000  0.0000  0.0000 </r>
        <r>  0.0542  0.0027  0.0010  0.0004  0.0000  0.0000  0.0000  0.0000  0.0000 </r>
        <r>  0.0556  0.0026  0.0010  0.0004  0.0000  0.0000  0.0000  0.0000  0.0000 </r>
       </set>
       <set comment="band 4">
        <r>  0.0556  0.0004  0.0010  0.0026  0.0000  0.0000  0.0000  0.0000  0.0000 </r>
        <r>  0.0542  0.0004  0.0010  0.0027  0.0000  0.0000  0.0000  0.0000  0.0000 </r>
        <r>  0.0542  0.0019  0.0010  0.0011  0.0000  0.0000  0.0000  0.0000  0.0000 </r>
        <r>  0.0556  0.0019  0.0010  0.0011  0.0000  0.0000  0.0000  0.0000  0.0000 </r>
        <r>  0.0542  0.0019  0.0010  0.0011  0.0000  0.0000  0.0000  0.0000  0.0000 </r>
        <r>  0.0556  0.0019  0.0010  0.0011  0.0000  0.0000  0.0000  0.0000  0.0000 </r>
        <r>  0.0556  0.0004  0.0010  0.0026  0.0000  0.0000  0.0000  0.0000  0.0000 </r>
        <r>  0.0542  0.0004  0.0010  0.0027  0.0000  0.0000  0.0000  0.0000  0.0000 </r>
       </set>
       <set comment="band 5">
        <r>  0.0353  0.0061  0.0094  0.0046  0.0000  0.0000  0.0000  0.0000  0.0000 </r>
        <r>  0.0201  0.0102  0.0054  0.0087  0.0000  0.0000  0.0000  0.0000  0.0000 </r>
        <r>  0.0201  0.0086  0.0054  0.0103  0.0000  0.0000  0.0000  0.0000  0.0000 </r>
        <r>  0.0353  0.0045  0.0094  0.0062  0.0000  0.0000  0.0000  0.0000  0.0000 </r>
        <r>  0.0201  0.0086  0.0054  0.0103  0.0000  0.0000  0.0000  0.0000  0.0000 </r>
        <r>  0.0353  0.0045  0.0094  0.0062  0.0000  0.0000  0.0000  0.0000  0.0000 </r>
        <r>  0.0353  0.0061  0.0094  0.0046  0.0000  0.0000  0.0000  0.0000  0.0000 </r>
        <r>  0.0201  0.0102  0.0054  0.0087  0.0000  0.0000  0.0000  0.0000  0.0000 </r>
       </set>
       <set comment="band 6">
        <r>  0.0201  0.0087  0.0054  0.0102  0.0000  0.0000  0.0000  0.0000  0.0000 </r>
        <r>  0.0353  0.0046  0.0094  0.0061  0.0000  0.0000  0.0000  0.0000  0.0000 </r>
        <r>  0.0353  0.0062  0.0094  0.0045  0.0000  0.0000  0.0000  0.0000  0.0000 </r>
        <r>  0.0201  0.0103  0.0054  0.0086  0.0000  0.0000  0.0000  0.0000  0.0000 </r>
        <r>  0.0353  0.0062  0.0094  0.0045  0.0000  0.0000  0.0000  0.0000  0.0000 </r>
        <r>  0.0201  0.0103  0.0054  0.0086  0.0000  0.0000  0.0000  0.0000  0.0000 </r>
        <r>  0.0201  0.0087  0.0054  0.0102  0.0000  0.0000  0.0000  0.0000  0.0000 </r>
        <r>  0.0353  0.0046  0.0094  0.0061  0.0000  0.0000  0.0000  0.0000  0.0000 </r>
       </set>
       <set comment="band 7">
        <r>  0.0289  0.0072  0.0074  0.0072  0.0000  0.0000  0.0000  0.0000  0.0000 </r>
        <r>  0.0289  0.0072  0.0074  0.0072  0.0000  0.0000  0.0000  0.0000  0.0000 </r>
        <r>  0.0289  0.0072  0.0074  0.0072  0.0000  0.0000  0.0000  0.0000  0.0000 </r>
        <r>  0.0289  0.0072  0.0074  0.0072  0.0000  0.0000  0.0000  0.0000  0.0000 </r>
        <r>  0.0289  0.0072  0.0074  0.0072  0.0000  0.0000  0.0000  0.0000  0.0000 </r>
        <r>  0.0289  0.0072  0.0074  0.0072  0.0000  0.0000  0.0000  0.0000  0.0000 </r>
        <r>  0.0289  0.0072  0.0074  0.0072  0.0000  0.0000  0.0000  0.0000  0.0000 </r>
        <r>  0.0289  0.0072  0.0074  0.0072  0.0000  0.0000  0.0000  0.0000  0.0000 </r>
       </set>
       <set comment="band 8">
        <r>  0.0270  0.0079  0.0082  0.0079  0.0000  0.0000  0.0000  0.0000  0.0000 </r>
        <r>  0.0270  0.0079  0.0082  0.0079  0.0000  0.0000  0.0000  0.0000  0.0000 </r>
        <r>  0.0270  0.0079  0.0082  0.0079  0.0000  0.0000  0.0000  0.0000  0.0000 </r>
        <r>  0.0270  0.0079  0.0082  0.0079  0.0000  0.0000  0.0000  0.0000  0.0000 </r>
        <r>  0.0270  0.0079  0.0082  0.0079  0.0000  0.0000  0.0000  0.0000  0.0000 </r>
        <r>  0.0270  0.0079  0.0082  0.0079  0.0000  0.0000  0.0000  0.0000  0.0000 </r>
        <r>  0.0270  0.0079  0.0082  0.0079  0.0000  0.0000  0.0000  0.0000  0.0000 </r>
        <r>  0.0270  0.0079  0.0082  0.0079  0.0000  0.0000  0.0000  0.0000  0.0000 </r>
       </set>
       <set comment="band 9">
        <r>  0.0081  0.0081  0.0245  0.0081  0.0000  0.0000  0.0000  0.0000  0.0000 </r>
        <r>  0.0081  0.0081  0.0245  0.0081  0.0000  0.0000  0.0000  0.0000  0.0000 </r>
        <r>  0.0081  0.0081  0.0245  0.0081  0.0000  0.0000  0.0000  0.0000  0.0000 </r>
        <r>  0.0081  0.0081  0.0245  0.0081  0.0000  0.0000  0.0000  0.0000  0.0000 </r>
        <r>  0.0081  0.0081  0.0245  0.0081  0.0000  0.0000  0.0000  0.0000  0.0000 </r>
        <r>  0.0081  0.0081  0.0245  0.0081  0.0000  0.0000  0.0000  0.0000  0.0000 </r>
        <r>  0.0081  0.0081  0.0245  0.0081  0.0000  0.0000  0.0000  0.0000  0.0000 </r>
        <r>  0.0081  0.0081  0.0245  0.0081  0.0000  0.0000  0.0000  0.0000  0.0000 </r>
       </set>
       <set comment="band 10">
        <r>  0.0059  0.0125  0.0140  0.0110  0.0000  0.0000  0.0000  0.0000  0.0000 </r>
        <r>  0.0106  0.0123  0.0251  0.0108  0.0000  0.0000  0.0000  0.0000  0.0000 </r>
        <r>  0.0106  0.0227  0.0251  0.0004  0.0000  0.0000  0.0000  0.0000  0.0000 </r>
        <r>  0.0059  0.0229  0.0140  0.0006  0.0000  0.0000  0.0000  0.0000  0.0000 </r>
        <r>  0.0106  0.0227  0.0251  0.0004  0.0000  0.0000  0.0000  0.0000  0.0000 </r>
        <r>  0.0059  0.0229  0.0140  0.0006  0.0000  0.0000  0.0000  0.0000  0.0000 </r>
        <r>  0.0059  0.0125  0.0140  0.0110  0.0000  0.0000  0.0000  0.0000  0.0000 </r>
        <r>  0.0106  0.0123  0.0251  0.0108  0.0000  0.0000  0.0000  0.0000  0.0000 </r>
       </set>
       <set comment="band 11">
        <r>  0.0106  0.0108  0.0251  0.0123  0.0000  0.0000  0.0000  0.0000  0.0000 </r>
        <r>  0.0059  0.0110  0.0140  0.0125  0.0000  0.0000  0.0000  0.0000  0.0000 </r>
        <r>  0.0059  0.0006  0.0140  0.0229  0.0000  0.0000  0.0000  0.0000  0.0000 </r>
        <r>  0.0106  0.0004  0.0251  0.0227  0.0000  0.0000  0.0000  0.0000  0.0000 </r>
        <r>  0.0059  0.0006  0.0140  0.0229  0.0000  0.0000  0.0000  0.0000  0.0000 </r>
        <r>  0.0106  0.0004  0.0251  0.0227  0.0000  0.0000  0.0000  0.0000  0.0000 </r>
        <r>  0.0106  0.0108  0.0251  0.0123  0.0000  0.0000  0.0000  0.0000  0.0000 </r>
        <r>  0.0059  0.0110  0.0140  0.0125  0.0000  0.0000  0.0000  0.0000  0.0000 </r>
       </set>
       <set comment="band 12">
        <r>  0.0004  0.0004  0.0025  0.0147  0.0000  0.0000  0.0000  0.0000  0.0000 </r>
        <r>  0.0040  0.0207  0.0255  0.0351  0.0000  0.0000  0.0000  0.0000  0.0000 </r>
        <r>  0.0040  0.0206  0.0255  0.0351  0.0000  0.0000  0.0000  0.0000  0.0000 </r>
        <r>  0.0004  0.0003  0.0025  0.0148  0.0000  0.0000  0.0000  0.0000  0.0000 </r>
        <r>  0.0040  0.0206  0.0255  0.0351  0.0000  0.0000  0.0000  0.0000  0.0000 </r>
        <r>  0.0004  0.0003  0.0025  0.0148  0.0000  0.0000  0.0000  0.0000  0.0000 </r>
        <r>  0.0004  0.0004  0.0025  0.0147  0.0000  0.0000  0.0000  0.0000  0.0000 </r>
        <r>  0.0040  0.0207  0.0255  0.0351  0.0000  0.0000  0.0000  0.0000  0.0000 </r>
       </set>
       <set comment="band 13">
        <r>  0.0040  0.0351  0.0255  0.0207  0.0000  0.0000  0.0000  0.0000  0.0000 </r>
        <r>  0.0004  0.0147  0.0025  0.0004  0.0000  0.0000  0.0000  0.0000  0.0000 </r>
        <r>  0.0004  0.0148  0.0025  0.0003  0.0000  0.0000  0.0000  0.0000  0.0000 </r>
        <r>  0.0040  0.0351  0.0255  0.0206  0.0000  0.0000  0.0000  0.0000  0.0000 </r>
        <r>  0.0004  0.0148  0.0025  0.0003  0.0000  0.0000  0.0000  0.0000  0.0000 </r>
        <r>  0.0040  0.0351  0.0255  0.0206  0.0000  0.0000  0.0000  0.0000  0.0000 </r>
        <r>  0.0040  0.0351  0.0255  0.0207  0.0000  0.0000  0.0000  0.0000  0.0000 </r>
        <r>  0.0004  0.0147  0.0025  0.0004  0.0000  0.0000  0.0000  0.0000  0.0000 </r>
       </set>
       <set comment="band 14">
        <r>  0.0000  0.0087  0.0354  0.0087  0.0000  0.0000  0.0000  0.0000  0.0000 </r>
        <r>  0.0000  0.0087  0.0354  0.0087  0.0000  0.0000  0.0000  0.0000  0.0000 </r>
        <r>  0.0000  0.0087  0.0354  0.0087  0.0000  0.0000  0.0000  0.0000  0.0000 </r>
        <r>  0.0000  0.0087  0.0354  0.0087  0.0000  0.0000  0.0000  0.0000  0.0000 </r>
        <r>  0.0000  0.0087  0.0354  0.0087  0.0000  0.0000  0.0000  0.0000  0.0000 </r>
        <r>  0.0000  0.0087  0.0354  0.0087  0.0000  0.0000  0.0000  0.0000  0.0000 </r>
        <r>  0.0000  0.0087  0.0354  0.0087  0.0000  0.0000  0.0000  0.0000  0.0000 </r>
        <r>  0.0000  0.0087  0.0354  0.0087  0.0000  0.0000  0.0000  0.0000  0.0000 </r>
       </set>
       <set comment="band 15">
        <r>  0.0000  0.0263  0.0000  0.0263  0.0000  0.0000  0.0000  0.0000  0.0000 </r>
        <r>  0.0000  0.0263  0.0000  0.0263  0.0000  0.0000  0.0000  0.0000  0.0000 </r>
        <r>  0.0000  0.0263  0.0000  0.0263  0.0000  0.0000  0.0000  0.0000  0.0000 </r>
        <r>  0.0000  0.0263  0.0000  0.0263  0.0000  0.0000  0.0000  0.0000  0.0000 </r>
        <r>  0.0000  0.0263  0.0000  0.0263  0.0000  0.0000  0.0000  0.0000  0.0000 </r>
        <r>  0.0000  0.0263  0.0000  0.0263  0.0000  0.0000  0.0000  0.0000  0.0000 </r>
        <r>  0.0000  0.0263  0.0000  0.0263  0.0000  0.0000  0.0000  0.0000  0.0000 </r>
        <r>  0.0000  0.0263  0.0000  0.0263  0.0000  0.0000  0.0000  0.0000  0.0000 </r>
       </set>
       <set comment="band 16">
        <r>  0.0000  0.0270  0.0000  0.0270  0.0000  0.0000  0.0000  0.0000  0.0000 </r>
        <r>  0.0000  0.0270  0.0000  0.0270  0.0000  0.0000  0.0000  0.0000  0.0000 </r>
        <r>  0.0000  0.0270  0.0000  0.0270  0.0000  0.0000  0.0000  0.0000  0.0000 </r>
        <r>  0.0000  0.0270  0.0000  0.0270  0.0000  0.0000  0.0000  0.0000  0.0000 </r>
        <r>  0.0000  0.0270  0.0000  0.0270  0.0000  0.0000  0.0000  0.0000  0.0000 </r>
        <r>  0.0000  0.0270  0.0000  0.0270  0.0000  0.0000  0.0000  0.0000  0.0000 </r>
        <r>  0.0000  0.0270  0.0000  0.0270  0.0000  0.0000  0.0000  0.0000  0.0000 </r>
        <r>  0.0000  0.0270  0.0000  0.0270  0.0000  0.0000  0.0000  0.0000  0.0000 </r>
       </set>
       <set comment="band 17">
        <r>  0.0405  0.0041  0.0004  0.0041  0.0000  0.0000  0.0000  0.0000  0.0000 </r>
        <r>  0.0405  0.0041  0.0004  0.0041  0.0000  0.0000  0.0000  0.0000  0.0000 </r>
        <r>  0.0405  0.0041  0.0004  0.0041  0.0000  0.0000  0.0000  0.0000  0.0000 </r>
        <r>  0.0405  0.0041  0.0004  0.0041  0.0000  0.0000  0.0000  0.0000  0.0000 </r>
        <r>  0.0405  0.0041  0.0004  0.0041  0.0000  0.0000  0.0000  0.0000  0.0000 </r>
        <r>  0.0405  0.0041  0.0004  0.0041  0.0000  0.0000  0.0000  0.0000  0.0000 </r>
        <r>  0.0405  0.0041  0.0004  0.0041  0.0000  0.0000  0.0000  0.0000  0.0000 </r>
        <r>  0.0405  0.0041  0.0004  0.0041  0.0000  0.0000  0.0000  0.0000  0.0000 </r>
       </set>
       <set comment="band 18">
        <r>  0.0231  0.0135  0.0028  0.0012  0.0000  0.0000  0.0000  0.0000  0.0000 </r>
        <r>  0.0219  0.0135  0.0027  0.0012  0.0000  0.0000  0.0000  0.0000  0.0000 </r>
        <r>  0.0219  0.0096  0.0027  0.0050  0.0000  0.0000  0.0000  0.0000  0.0000 </r>
        <r>  0.0231  0.0096  0.0028  0.0050  0.0000  0.0000  0.0000  0.0000  0.0000 </r>
        <r>  0.0219  0.0097  0.0027  0.0050  0.0000  0.0000  0.0000  0.0000  0.0000 </r>
        <r>  0.0231  0.0096  0.0028  0.0050  0.0000  0.0000  0.0000  0.0000  0.0000 </r>
        <r>  0.0231  0.0134  0.0028  0.0012  0.0000  0.0000  0.0000  0.0000  0.0000 </r>
        <r>  0.0219  0.0135  0.0027  0.0012  0.0000  0.0000  0.0000  0.0000  0.0000 </r>
       </set>
       <set comment="band 19">
        <r>  0.0219  0.0011  0.0027  0.0135  0.0000  0.0000  0.0000  0.0000  0.0000 </r>
        <r>  0.0231  0.0012  0.0028  0.0133  0.0000  0.0000  0.0000  0.0000  0.0000 </r>
        <r>  0.0231  0.0051  0.0028  0.0096  0.0000  0.0000  0.0000  0.0000  0.0000 </r>
        <r>  0.0219  0.0050  0.0027  0.0095  0.0000  0.0000  0.0000  0.0000  0.0000 </r>
        <r>  0.0231  0.0049  0.0028  0.0096  0.0000  0.0000  0.0000  0.0000  0.0000 </r>
        <r>  0.0219  0.0050  0.0027  0.0097  0.0000  0.0000  0.0000  0.0000  0.0000 </r>
        <r>  0.0219  0.0012  0.0027  0.0135  0.0000  0.0000  0.0000  0.0000  0.0000 </r>
        <r>  0.0231  0.0012  0.0028  0.0136  0.0000  0.0000  0.0000  0.0000  0.0000 </r>
       </set>
       <set comment="band 20">
        <r>  0.0320  0.0015  0.0113  0.0015  0.0000  0.0000  0.0000  0.0000  0.0000 </r>
        <r>  0.0320  0.0015  0.0113  0.0015  0.0000  0.0000  0.0000  0.0000  0.0000 </r>
        <r>  0.0320  0.0015  0.0113  0.0015  0.0000  0.0000  0.0000  0.0000  0.0000 </r>
        <r>  0.0320  0.0015  0.0113  0.0015  0.0000  0.0000  0.0000  0.0000  0.0000 </r>
        <r>  0.0320  0.0015  0.0113  0.0015  0.0000  0.0000  0.0000  0.0000  0.0000 </r>
        <r>  0.0320  0.0015  0.0113  0.0015  0.0000  0.0000  0.0000  0.0000  0.0000 </r>
        <r>  0.0320  0.0015  0.0113  0.0015  0.0000  0.0000  0.0000  0.0000  0.0000 </r>
        <r>  0.0320  0.0015  0.0113  0.0015  0.0000  0.0000  0.0000  0.0000  0.0000 </r>
       </set>
       <set comment="band 21">
        <r>  0.0030  0.0059  0.0112  0.0060  0.0000  0.0000  0.0000  0.0000  0.0000 </r>
        <r>  0.0030  0.0060  0.0112  0.0060  0.0000  0.0000  0.0000  0.0000  0.0000 </r>
        <r>  0.0030  0.0060  0.0112  0.0059  0.0000  0.0000  0.0000  0.0000  0.0000 </r>
        <r>  0.0030  0.0060  0.0112  0.0059  0.0000  0.0000  0.0000  0.0000  0.0000 </r>
        <r>  0.0030  0.0060  0.0112  0.0059  0.0000  0.0000  0.0000  0.0000  0.0000 </r>
        <r>  0.0030  0.0060  0.0112  0.0059  0.0000  0.0000  0.0000  0.0000  0.0000 </r>
        <r>  0.0030  0.0059  0.0112  0.0060  0.0000  0.0000  0.0000  0.0000  0.0000 </r>
        <r>  0.0030  0.0059  0.0112  0.0060  0.0000  0.0000  0.0000  0.0000  0.0000 </r>
       </set>
       <set comment="band 22">
        <r>  0.0040  0.0023  0.0176  0.0023  0.0000  0.0000  0.0000  0.0000  0.0000 </r>
        <r>  0.0041  0.0024  0.0176  0.0024  0.0000  0.0000  0.0000  0.0000  0.0000 </r>
        <r>  0.0039  0.0022  0.0178  0.0024  0.0000  0.0000  0.0000  0.0000  0.0000 </r>
        <r>  0.0040  0.0023  0.0177  0.0025  0.0000  0.0000  0.0000  0.0000  0.0000 </r>
        <r>  0.0041  0.0023  0.0177  0.0025  0.0000  0.0000  0.0000  0.0000  0.0000 </r>
        <r>  0.0039  0.0022  0.0178  0.0023  0.0000  0.0000  0.0000  0.0000  0.0000 </r>
        <r>  0.0040  0.0023  0.0179  0.0024  0.0000  0.0000  0.0000  0.0000  0.0000 </r>
        <r>  0.0039  0.0023  0.0179  0.0023  0.0000  0.0000  0.0000  0.0000  0.0000 </r>
       </set>
       <set comment="band 23">
        <r>  0.0044  0.0080  0.0030  0.0075  0.0000  0.0000  0.0000  0.0000  0.0000 </r>
        <r>  0.0069  0.0117  0.0049  0.0119  0.0000  0.0000  0.0000  0.0000  0.0000 </r>
        <r>  0.0069  0.0081  0.0049  0.0155  0.0000  0.0000  0.0000  0.0000  0.0000 </r>
        <r>  0.0044  0.0039  0.0031  0.0114  0.0000  0.0000  0.0000  0.0000  0.0000 </r>
        <r>  0.0069  0.0085  0.0049  0.0149  0.0000  0.0000  0.0000  0.0000  0.0000 </r>
        <r>  0.0044  0.0043  0.0031  0.0108  0.0000  0.0000  0.0000  0.0000  0.0000 </r>
        <r>  0.0044  0.0075  0.0030  0.0078  0.0000  0.0000  0.0000  0.0000  0.0000 </r>
        <r>  0.0069  0.0120  0.0049  0.0117  0.0000  0.0000  0.0000  0.0000  0.0000 </r>
       </set>
       <set comment="band 24">
        <r>  0.0065  0.0041  0.0044  0.0210  0.0000  0.0000  0.0000  0.0000  0.0000 </r>
        <r>  0.0038  0.0099  0.0025  0.0097  0.0000  0.0000  0.0000  0.0000  0.0000 </r>
        <r>  0.0039  0.0057  0.0030  0.0082  0.0000  0.0000  0.0000  0.0000  0.0000 </r>
        <r>  0.0065  0.0228  0.0045  0.0035  0.0000  0.0000  0.0000  0.0000  0.0000 </r>
        <r>  0.0038  0.0162  0.0029  0.0016  0.0000  0.0000  0.0000  0.0000  0.0000 </r>
        <r>  0.0066  0.0079  0.0044  0.0145  0.0000  0.0000  0.0000  0.0000  0.0000 </r>
        <r>  0.0065  0.0205  0.0043  0.0042  0.0000  0.0000  0.0000  0.0000  0.0000 </r>
        <r>  0.0038  0.0068  0.0025  0.0072  0.0000  0.0000  0.0000  0.0000  0.0000 </r>
       </set>
      </set>
     </set>
    </set>
   </array>
  </projected>
 </calculation>
 <structure name="finalpos" >
  <crystal>
   <varray name="basis" >
    <v>       5.33201000       0.00000000       0.00000000 </v>
    <v>       0.00000000       5.33201000       0.00000000 </v>
    <v>       0.00000000       0.00000000       5.74216400 </v>
   </varray>
   <i name="volume">    163.25162111 </i>
   <varray name="rec_basis" >
    <v>       0.18754653       0.00000000       0.00000000 </v>
    <v>       0.00000000       0.18754653       0.00000000 </v>
    <v>       0.00000000       0.00000000       0.17415037 </v>
   </varray>
  </crystal>
  <varray name="positions" >
   <v>       0.25000000       0.75000000       0.25000000 </v>
   <v>       0.00000000       0.00000000       0.50000000 </v>
   <v>       0.25000000       0.25000000       0.75000000 </v>
   <v>       0.00000000       0.50000000       0.00000000 </v>
   <v>       0.75000000       0.75000000       0.75000000 </v>
   <v>       0.50000000       0.00000000       0.00000000 </v>
   <v>       0.75000000       0.25000000       0.25000000 </v>
   <v>       0.50000000       0.50000000       0.50000000 </v>
  </varray>
 </structure>
</modeling>
