ITEM: TIMESTEP
0
ITEM: NUMBER OF ATOMS
8
ITEM: BOX BOUNDS xy xz yz pp pp pp
0.0000000000000000e+00 8.3868510000000001e+00 -0.0000000000000000e+00
0.0000000000000000e+00 8.3868510000000001e+00 2.7956170000000000e+00
0.0000000000000000e+00 5.1024089999999998e+00 2.7956170000000000e+00
ITEM: ATOMS id type x y z
1 1 2.79562 2.79562 0
2 1 5.59123 2.79562 2.5512
3 1 2.79562 5.59123 2.5512
4 2 0 0 0
5 3 4.40014 1.1911 1.1919
6 3 1.1911 4.40014 1.1919
7 3 3.98671 3.98671 3.91051
8 3 7.19575 7.19575 3.91051
ITEM: TIMESTEP
50
ITEM: NUMBER OF ATOMS
8
ITEM: BOX BOUNDS xy xz yz pp pp pp
-3.5221846077989838e-02 8.5153100754275943e+00 4.9901102073843739e-02
-4.5975361390700797e-02 8.4815786084080660e+00 2.8389531272757620e+00
-6.6712643108581826e-02 5.1691216431085856e+00 2.8443692470173647e+00
ITEM: ATOMS id type x y z
1 1 2.86756 2.70093 -0.0848247
2 1 5.62144 2.92359 2.35189
3 1 2.90347 5.63885 2.82671
4 2 0.020105 -0.121733 -0.0866407
5 3 4.35775 1.16474 1.00539
6 3 1.37178 4.41999 0.989887
7 3 4.11271 3.9198 3.95037
8 3 7.04462 7.43289 4.26585
ITEM: TIMESTEP
100
ITEM: NUMBER OF ATOMS
8
ITEM: BOX BOUNDS xy xz yz pp pp pp
-4.2068365183567380e-02 8.6145807875642291e+00 1.1388273718995744e-01
-8.8523097241980597e-02 8.5838283336505192e+00 2.8673956851907034e+00
-1.6089390221756261e-01 5.2633029022175695e+00 2.9040712364085364e+00
ITEM: ATOMS id type x y z
1 1 2.60398 2.57321 -0.149996
2 1 5.8991 2.73007 2.69376
3 1 2.71802 5.88838 2.17922
4 2 -0.111485 -0.0860148 -0.190117
5 3 4.59845 1.24356 1.25748
6 3 1.18001 4.56721 1.01069
7 3 3.846 4.04051 4.00348
8 3 7.63177 7.1584 4.0087
ITEM: TIMESTEP
150
ITEM: NUMBER OF ATOMS
8
ITEM: BOX BOUNDS xy xz yz pp pp pp
6.2019815086554519e-02 8.4504292849632243e+00 1.5404695133211727e-01
-4.0169887101932922e-02 8.5213359620024232e+00 2.7671681487176576e+00
-1.9506712403915705e-01 5.2974761240391626e+00 2.8899320749004880e+00
ITEM: ATOMS id type x y z
1 1 2.80284 2.80966 -0.0605731
2 1 5.49119 2.93087 2.85674
3 1 3.25499 5.3598 2.37204
4 2 0.0614777 -0.102369 -0.189769
5 3 4.41288 1.35122 1.0248
6 3 1.15848 4.2657 1.10949
7 3 3.90531 4.12655 4.12733
8 3 7.51327 7.31713 3.88161
ITEM: TIMESTEP
200
ITEM: NUMBER OF ATOMS
8
ITEM: BOX BOUNDS xy xz yz pp pp pp
1.7915674769851142e-01 8.1986460876418867e+00 1.2733230764823084e-01
2.8789668278929259e-02 8.4472810973598857e+00 2.6592365276921641e+00
-2.2272270063860899e-01 5.3251317006386136e+00 2.8848367656388114e+00
ITEM: ATOMS id type x y z
1 1 5.46185 5.85984 5.2077
2 1 5.23215 2.76868 2.30932
3 1 2.492 5.73394 2.71755
4 2 0.415749 5.56765 -0.256974
5 3 4.04256 1.12195 0.833533
6 3 1.4529 4.28995 1.10976
7 3 4.34436 4.05492 4.31732
8 3 6.96401 7.43571 4.01906
ITEM: TIMESTEP
250
ITEM: NUMBER OF ATOMS
8
ITEM: BOX BOUNDS xy xz yz pp pp pp
1.5457646459290686e-01 8.3498648402623488e+00 1.5649416775940492e-01
1.3656595707739250e-02 8.5192513532852683e+00 2.7567131370958498e+00
-3.4304857358003371e-01 5.4454575735800397e+00 2.9416739489930039e+00
ITEM: ATOMS id type x y z
1 1 5.89554 5.44103 5.2626
2 1 5.59523 2.75455 2.37782
3 1 2.95208 5.6887 2.38187
4 2 0.18787 5.62651 -0.351466
5 3 4.41199 1.12017 1.20441
6 3 1.47369 4.57284 0.912882
7 3 3.92191 4.12643 4.08384
8 3 7.25366 7.28264 4.12559
ITEM: TIMESTEP
300
ITEM: NUMBER OF ATOMS
8
ITEM: BOX BOUNDS xy xz yz pp pp pp
7.7722736685167160e-02 8.5348538771948039e+00 1.2539334530132781e-01
1.4496492516258286e-04 8.5424480305244632e+00 2.8959492685786401e+00
-4.0816327546730014e-01 5.5105722754673074e+00 2.9513589954496244e+00
ITEM: ATOMS id type x y z
1 1 5.6986 5.51006 5.52185
2 1 5.72518 3.26292 2.74319
3 1 2.66135 5.80065 2.38018
4 2 8.31096 2.92589 5.56271
5 3 4.70537 1.40749 0.895796
6 3 1.41195 4.23544 0.650167
7 3 3.92486 4.17212 4.20911
8 3 7.3391 7.23339 4.39239
ITEM: TIMESTEP
350
ITEM: NUMBER OF ATOMS
8
ITEM: BOX BOUNDS xy xz yz pp pp pp
1.1035727880376722e-01 8.3218144158798104e+00 3.3160051788095266e-02
1.0261017021616237e-01 8.2885387368062737e+00 2.8077776428954797e+00
-2.5101108774332515e-01 5.3534200877433360e+00 2.7999149070224356e+00
ITEM: ATOMS id type x y z
1 1 5.6788 5.49526 5.17584
2 1 5.5541 2.47332 2.45483
3 1 2.94528 5.68704 2.55759
4 2 8.36364 2.87127 5.31693
5 3 4.34386 1.19839 0.976377
6 3 1.31087 4.40605 1.15904
7 3 4.13395 4.00741 3.99372
8 3 6.97595 7.2723 4.16884
ITEM: TIMESTEP
400
ITEM: NUMBER OF ATOMS
8
ITEM: BOX BOUNDS xy xz yz pp pp pp
-8.3359901682106788e-02 8.3608588923457869e+00 -1.1885975060405658e-01
1.5894337378082479e-01 8.1525209846406845e+00 2.8051247412677367e+00
-1.0218604726963942e-01 5.2045950472696472e+00 2.7202303584215102e+00
ITEM: ATOMS id type x y z
1 1 5.32084 5.79463 5.51493
2 1 5.41857 2.73989 2.22761
3 1 2.85687 4.98927 2.93044
4 2 2.80114 3.0085 5.22695
5 3 4.01732 1.25592 0.945869
6 3 1.17246 4.49197 1.2181
7 3 4.27806 3.86995 4.00986
8 3 7.17347 6.94586 3.93017
ITEM: TIMESTEP
450
ITEM: NUMBER OF ATOMS
8
ITEM: BOX BOUNDS xy xz yz pp pp pp
-5.9157721116954698e-01 8.8362583111115782e+00 -3.6170255804837320e-01
8.6740725510510597e-02 8.2928900111108632e+00 3.0151496579904089e+00
-8.9506651067383647e-02 5.1919156510673936e+00 2.7883967366213755e+00
ITEM: ATOMS id type x y z
1 1 5.64354 5.68958 4.91692
2 1 5.85312 2.65079 2.86797
3 1 2.57911 5.65205 2.10517
4 2 5.77937 0.106792 -0.0342798
5 3 4.55758 1.47974 0.980951
6 3 0.417053 4.22856 1.17821
7 3 4.09565 4.08481 4.2758
8 3 7.41586 6.94056 3.80402
ITEM: TIMESTEP
500
ITEM: NUMBER OF ATOMS
8
ITEM: BOX BOUNDS xy xz yz pp pp pp
-1.1339482495045448e+00 8.9783241022891627e+00 -7.4288831475456085e-01
-2.1857648054155021e-02 8.6474986096556847e+00 2.9960301675391836e+00
-5.1698114320950950e-02 5.1541071143209649e+00 3.0344069616015288e+00
ITEM: ATOMS id type x y z
1 1 2.58996 2.78274 0.476241
2 1 5.38656 2.85261 2.92796
3 1 1.97959 5.51539 2.77779
4 2 1.9824 8.63569 5.12443
5 3 4.7276 0.997673 1.18835
6 3 0.365327 4.47323 1.06646
7 3 3.5913 4.34245 3.92202
8 3 6.95593 7.5079 3.81177
ITEM: TIMESTEP
550
ITEM: NUMBER OF ATOMS
8
ITEM: BOX BOUNDS xy xz yz pp pp pp
-1.2744404026682823e+00 8.3138237652762506e+00 -1.0925684387557781e+00
1.3550175524151609e-02 8.8205765104045977e+00 2.5407178013637535e+00
1.3464189021350581e-01 4.9677671097865073e+00 3.2428926859287515e+00
ITEM: ATOMS id type x y z
1 1 2.05803 2.72213 0.251975
2 1 5.29118 3.14309 2.20206
3 1 1.48107 5.88028 3.00934
4 2 4.68883 5.61321 0.218378
5 3 3.21353 6.53978 1.41342
6 3 0.438838 4.72159 1.01077
7 3 3.52654 4.39118 3.73413
8 3 5.89852 7.52047 3.91662
ITEM: TIMESTEP
600
ITEM: NUMBER OF ATOMS
8
ITEM: BOX BOUNDS xy xz yz pp pp pp
-3.4477740319213757e+00 5.5361632696374610e+00 -1.5313003913654128e+00
-2.0070294718994859e+00 5.6237029742955027e+00 -1.9715443709185012e+00
2.3116814145504261e-01 4.8712408585449669e+00 -1.9745604976039826e+00
ITEM: ATOMS id type x y z
1 1 1.81126 2.67934 1.1164
2 1 -0.816334 2.87826 3.34035
3 1 2.60516 0.449187 2.90578
4 2 5.45137 -0.0691729 0.377398
5 3 4.23994 1.65098 0.957589
6 3 -0.0474552 4.55895 1.26299
7 3 -0.957801 -0.888064 3.60204
8 3 1.13619 2.03471 3.80174
ITEM: TIMESTEP
650
ITEM: NUMBER OF ATOMS
8
ITEM: BOX BOUNDS xy xz yz pp pp pp
-3.6486325882408499e+00 5.4679958458577573e+00 -2.0663676827954296e+00
-1.9320902344167772e+00 5.8109527187802490e+00 -1.7055030595876526e+00
2.6110959319489480e-01 4.8412994068051223e+00 -1.7123715156365278e+00
ITEM: ATOMS id type x y z
1 1 1.21047 2.92132 0.901184
2 1 -1.46668 3.27692 3.35416
3 1 2.57958 0.291772 2.96458
4 2 5.4162 -0.194803 0.326019
5 3 3.95003 1.06702 0.967302
6 3 -0.52995 4.71334 1.35815
7 3 -0.531361 -0.548216 3.68049
8 3 1.07245 2.54145 3.73433
ITEM: TIMESTEP
700
ITEM: NUMBER OF ATOMS
8
ITEM: BOX BOUNDS xy xz yz pp pp pp
-3.8844636516830997e+00 5.4672178841839925e+00 -2.5736380123112252e+00
-1.9233367965681583e+00 6.0356695294899634e+00 -1.4348417551878723e+00
2.2873380788769548e-01 4.8736751921123229e+00 -1.4789012670781940e+00
ITEM: ATOMS id type x y z
1 1 0.783939 2.99688 1.03908
2 1 -1.69115 4.05746 3.6291
3 1 2.05199 0.191059 3.28769
4 2 2.88534 5.91422 0.180186
5 3 3.98169 0.533199 1.06086
6 3 -0.987625 4.8708 1.18585
7 3 -0.262107 -0.300953 4.04298
8 3 0.862925 3.16589 3.39386
ITEM: TIMESTEP
750
ITEM: NUMBER OF ATOMS
8
ITEM: BOX BOUNDS xy xz yz pp pp pp
-4.2386141053361071e+00 5.5090394133007443e+00 -3.1452665609870465e+00
-1.8319344301346583e+00 6.1699863543514537e+00 -1.1755421310483072e+00
1.8413705927336066e-01 4.9182719407266564e+00 -1.2531820757831997e+00
ITEM: ATOMS id type x y z
1 1 0.450351 3.46611 0.759131
2 1 -1.71918 4.43502 3.87694
3 1 2.86426 -0.188532 2.8573
4 2 1.2136 4.87149 4.89711
5 3 3.97358 0.392549 0.953646
6 3 -1.8882 4.90543 1.26768
7 3 -0.0690906 -0.231493 4.17415
8 3 0.694442 3.52807 3.35207
ITEM: TIMESTEP
800
ITEM: NUMBER OF ATOMS
8
ITEM: BOX BOUNDS xy xz yz pp pp pp
-9.8342978558875715e-01 7.3202191508041983e+00 1.7415089364663077e+00
-1.5784437878525508e+00 6.1415514081471319e+00 -9.9595357125085815e-01
2.0391641186454201e-01 4.8984925881354737e+00 -1.0281263797054199e+00
ITEM: ATOMS id type x y z
1 1 6.43558 3.60945 0.992252
2 1 3.2727 4.1219 3.6168
3 1 3.41787 -0.444237 2.70878
4 2 0.143056 -0.416023 0.399153
5 3 3.88413 0.275797 0.674031
6 3 2.95146 4.7938 1.31803
7 3 -0.0741694 0.0799997 4.08395
8 3 5.7125 3.86239 3.50479
ITEM: TIMESTEP
850
ITEM: NUMBER OF ATOMS
8
ITEM: BOX BOUNDS xy xz yz pp pp pp
-1.0596291068139330e+00 6.9664914179397854e+00 1.2615493323722620e+00
-1.2998675273378919e+00 6.0495653710783133e+00 -9.4592102124640054e-01
2.2854520736140094e-01 4.8738637926386188e+00 -8.4153615625957201e-01
ITEM: ATOMS id type x y z
1 1 1.06905 3.13404 1.18513
2 1 2.94501 4.32419 3.82679
3 1 2.99268 -0.0600474 2.73657
4 2 -0.114761 -0.36555 0.2314
5 3 3.8901 0.398373 0.747769
6 3 2.57252 4.80314 1.34813
7 3 -0.314954 0.361192 4.06452
8 3 5.54092 3.87892 3.51833
ITEM: TIMESTEP
900
ITEM: NUMBER OF ATOMS
8
ITEM: BOX BOUNDS xy xz yz pp pp pp
-1.2293517246258467e+00 6.5879840826136320e+00 7.8505109464770850e-01
-8.9673690394863670e-01 5.9477677854586597e+00 -1.0176527366599113e+00
3.1159923659744360e-01 4.7908097634025744e+00 -5.4020311848997038e-01
ITEM: ATOMS id type x y z
1 1 5.70777 2.94247 0.861695
2 1 2.36354 4.58028 4.1994
3 1 3.32841 0.777018 2.81851
4 2 5.54762 5.23004 4.6895
5 3 4.0225 0.62795 0.768504
6 3 1.99829 5.19996 1.63494
7 3 -0.278927 0.567897 3.91184
8 3 5.03076 3.77966 3.45368
ITEM: TIMESTEP
950
ITEM: NUMBER OF ATOMS
8
ITEM: BOX BOUNDS xy xz yz pp pp pp
-1.4952798398077209e+00 6.1735099983577078e+00 2.6259359492165329e-01
-5.8686939178275965e-01 5.8564221086219774e+00 -1.1755974363716548e+00
3.5064196368855249e-01 4.7517670363114579e+00 -3.2168128316077477e-01
ITEM: ATOMS id type x y z
1 1 5.55769 3.02131 1.60481
2 1 1.74963 4.82165 4.21925
3 1 2.96443 1.04508 2.45978
4 2 -1.11395 5.41193 4.63804
5 3 4.20179 0.825872 0.596596
6 3 1.29402 4.89422 1.54972
7 3 -0.282326 0.85282 3.99405
8 3 4.12541 3.9067 3.56154
ITEM: TIMESTEP
1000
ITEM: NUMBER OF ATOMS
8
ITEM: BOX BOUNDS xy xz yz pp pp pp
-1.9453524047803197e+00 5.9734338933918121e+00 -2.0478157263502325e-01
-2.9067715508630654e-01 5.7292110793372109e+00 -1.3583709387534719e+00
4.1109856116205101e-01 4.6913104388379629e+00 -1.5270007574908864e-01
ITEM: ATOMS id type x y z
1 1 -1.30153 2.67304 2.15481
2 1 0.965966 4.91418 3.88919
3 1 2.39999 0.737014 2.21033
4 2 4.7302 -0.27006 4.53996
5 3 4.31241 1.12412 0.668643
6 3 0.756736 4.61262 1.42597
7 3 -0.265391 1.1054 3.90699
8 3 3.46135 3.99551 3.75611
ITEM: TIMESTEP
1050
ITEM: NUMBER OF ATOMS
8
ITEM: BOX BOUNDS xy xz yz pp pp pp
-2.3790680740561014e+00 5.9966554634469613e+00 -5.0007813868078965e-01
-1.0473834338485237e-01 5.6566451364849826e+00 -1.4735684719283373e+00
4.6281355901903343e-01 4.6395954409809796e+00 -3.9327206899859621e-02
ITEM: ATOMS id type x y z
1 1 -1.35704 3.03358 2.46115
2 1 0.781089 4.52392 4.25678
3 1 1.84605 1.16606 2.01531
4 2 -1.73709 -0.0954437 4.57448
5 3 4.31046 1.09139 0.721356
6 3 0.340343 4.53467 1.62617
7 3 -0.337233 1.1615 3.69419
8 3 3.15081 4.22588 3.54023
ITEM: TIMESTEP
1100
ITEM: NUMBER OF ATOMS
8
ITEM: BOX BOUNDS xy xz yz pp pp pp
-2.6616486224029341e+00 6.0286829052661997e+00 -6.8510494412648915e-01
-9.2433514428366781e-02 5.7254179141247175e+00 -1.5390947730102327e+00
4.6935152782558065e-01 4.6330574721744320e+00 4.1750399696354801e-02
ITEM: ATOMS id type x y z
1 1 4.82731 3.05198 2.09944
2 1 2.27147 4.78503 0.891311
3 1 1.68532 1.18138 2.76809
4 2 3.87325 5.53731 4.46282
5 3 4.32543 1.10607 0.679128
6 3 0.075521 4.79404 1.72584
7 3 -0.503056 1.15131 3.95632
8 3 3.16116 4.25955 3.06618
ITEM: TIMESTEP
1150
ITEM: NUMBER OF ATOMS
8
ITEM: BOX BOUNDS xy xz yz pp pp pp
-3.1492962595992884e+00 6.0955462455973128e+00 -9.6296666139227305e-01
-1.7726536437383444e-01 5.8971054406515222e+00 -1.6820173526096958e+00
4.6764894705962545e-01 4.6347600529403881e+00 1.2860607627769757e-01
ITEM: ATOMS id type x y z
1 1 -1.34131 2.37514 2.01548
2 1 0.304666 4.84407 4.30069
3 1 1.5238 1.05107 2.33515
4 2 -2.84273 5.74634 4.42175
5 3 2.66953 0.790331 4.5427
6 3 -0.602263 4.80301 1.97701
7 3 -0.860679 1.71109 4.28955
8 3 3.02668 4.46257 3.10144
ITEM: TIMESTEP
1200
ITEM: NUMBER OF ATOMS
8
ITEM: BOX BOUNDS xy xz yz pp pp pp
-3.6112683963063619e+00 6.0926768789324477e+00 -1.2890736549131141e+00
-2.0713748581676406e-01 5.9612598973660935e+00 -1.8207518624607930e+00
5.3180257957066113e-01 4.5706064204293533e+00 1.6288841154934178e-01
ITEM: ATOMS id type x y z
1 1 -1.38697 2.7881 1.17226
2 1 0.481353 3.77912 4.24376
3 1 1.65218 0.877603 2.32626
4 2 3.05907 5.93589 4.36151
5 3 4.1902 0.587804 0.54138
6 3 -0.743654 4.92001 1.77334
7 3 -1.0846 1.91541 4.36305
8 3 2.65471 4.34871 3.27271
ITEM: TIMESTEP
1250
ITEM: NUMBER OF ATOMS
8
ITEM: BOX BOUNDS xy xz yz pp pp pp
-4.0802097696692261e+00 6.1095660883351322e+00 -1.6147679904375924e+00
-1.9917681957347444e-01 5.9229078919203086e+00 -1.9471096908964922e+00
5.8764292237809879e-01 4.5147660776219141e+00 1.3249707234684088e-01
ITEM: ATOMS id type x y z
1 1 -1.42168 2.86998 1.25448
2 1 -0.438198 4.54381 4.37251
3 1 2.38561 1.16248 2.06194
4 2 4.15472 -0.190784 4.44707
5 3 4.20271 0.474976 0.861095
6 3 -0.768501 5.02443 1.77819
7 3 -1.39288 1.7583 3.97582
8 3 2.06337 4.29731 3.22242
ITEM: TIMESTEP
1300
ITEM: NUMBER OF ATOMS
8
ITEM: BOX BOUNDS xy xz yz pp pp pp
-4.7569702068297062e+00 6.2247857364071351e+00 -1.9819724035775290e+00
-1.9778054044679783e-01 5.8544682477423189e+00 -2.1414460668450324e+00
6.3525714339852457e-01 4.4671518566014878e+00 6.5453707295527894e-02
ITEM: ATOMS id type x y z
1 1 -1.56784 2.80159 1.60821
2 1 -0.970267 4.52627 4.46691
3 1 1.27089 1.52479 2.45682
4 2 -4.67213 5.75894 4.23635
5 3 4.39577 0.607015 0.655524
6 3 -1.27207 5.00046 1.88326
7 3 -1.77083 1.70389 3.84834
8 3 1.74121 4.00762 3.43578
ITEM: TIMESTEP
1350
ITEM: NUMBER OF ATOMS
8
ITEM: BOX BOUNDS xy xz yz pp pp pp
-5.4339664787135451e+00 6.3747176403912196e+00 -2.3587202699179910e+00
-1.8494178211225254e-01 5.7901486925631094e+00 -2.2917625684043257e+00
6.5962618353972324e-01 4.4427828164602889e+00 1.3972910450865761e-02
ITEM: ATOMS id type x y z
1 1 -2.08977 2.6955 1.40295
2 1 1.65662 3.89265 0.864908
3 1 0.153258 1.54754 2.81788
4 2 1.83557 5.79239 4.01476
5 3 2.27771 0.415035 4.27783
6 3 -1.97129 5.17501 2.00466
7 3 -1.93127 1.75957 4.03054
8 3 1.44247 3.92697 3.41587
ITEM: TIMESTEP
1400
ITEM: NUMBER OF ATOMS
8
ITEM: BOX BOUNDS xy xz yz pp pp pp
-6.0156695031051122e+00 6.5410857913769469e+00 -2.6618670858984861e+00
-2.1354191144464080e-01 5.7403676908822057e+00 -2.4039506258296690e+00
6.5759921659486720e-01 4.4448097834051428e+00 -6.4408220562429855e-02
ITEM: ATOMS id type x y z
1 1 -2.43816 2.60297 1.36767
2 1 1.47582 4.09211 0.495537
3 1 0.40656 1.17814 3.27263
4 2 -3.23092 -0.200917 4.09605
5 3 2.42953 0.461946 4.40184
6 3 -2.68338 4.90538 2.08989
7 3 -2.30778 1.83725 4.04293
8 3 1.35052 3.88366 3.10956
ITEM: TIMESTEP
1450
ITEM: NUMBER OF ATOMS
8
ITEM: BOX BOUNDS xy xz yz pp pp pp
-6.2737184083495494e+00 6.6246963981908955e+00 -2.7929938532612710e+00
-1.8882133089374351e-01 5.6308020351981858e+00 -2.4472621568973656e+00
6.9194085711800524e-01 4.4104681428820056e+00 -1.4925329569554799e-01
ITEM: ATOMS id type x y z
1 1 -2.04611 2.56606 1.23055
2 1 -1.34249 4.12142 4.29032
3 1 0.511521 1.6436 2.78145
4 2 1.32244 5.36617 4.30941
5 3 2.33792 0.501178 4.1519
6 3 -2.90168 4.90508 2.30154
7 3 -2.24291 1.67436 4.0748
8 3 1.29402 3.7453 2.94983
ITEM: TIMESTEP
1500
ITEM: NUMBER OF ATOMS
8
ITEM: BOX BOUNDS xy xz yz pp pp pp
-6.4376345029554507e+00 6.7234354224813915e+00 -2.8559026489950892e+00
-2.2621971072342106e-01 5.5951468295772635e+00 -2.4495304314789537e+00
6.9696767438813589e-01 4.4054413256118741e+00 -2.2230688114614960e-01
ITEM: ATOMS id type x y z
1 1 -2.18435 3.06303 0.344244
2 1 -1.48339 3.98681 4.13668
3 1 -0.120864 1.49514 2.99873
4 2 -3.62961 -0.234316 4.41794
5 3 2.46277 0.624514 3.94665
6 3 -3.14657 4.5808 2.46379
7 3 -2.11277 1.48155 3.93553
8 3 1.29268 3.75415 3.19153
ITEM: TIMESTEP
1550
ITEM: NUMBER OF ATOMS
8
ITEM: BOX BOUNDS xy xz yz pp pp pp
-6.5346852147860552e+00 6.8542058589957904e+00 -2.7777099525548938e+00
-3.6121341587342659e-01 5.6058263953614835e+00 -2.4940034032353520e+00
6.9650414464445465e-01 4.4059048553555611e+00 -3.4662102051194044e-01
ITEM: ATOMS id type x y z
1 1 3.60861 2.54509 3.22781
2 1 1.34798 4.13667 0.702845
3 1 0.681883 1.01541 2.99897
4 2 1.60932 5.19135 4.26755
5 3 2.62631 0.695712 4.14911
6 3 -3.26027 4.56457 2.29904
7 3 -2.33281 1.34729 4.34267
8 3 1.11759 3.67484 3.01228
ITEM: TIMESTEP
1600
ITEM: NUMBER OF ATOMS
8
ITEM: BOX BOUNDS xy xz yz pp pp pp
-6.1623071660426421e+00 6.8221473745319274e+00 -2.4725030421594814e+00
-4.7373837687166881e-01 5.5662017539790645e+00 -2.4588907493512147e+00
7.0115951014114364e-01 4.4012494898588752e+00 -4.9877062289260615e-01
ITEM: ATOMS id type x y z
1 1 3.78124 2.71648 3.29148
2 1 1.33894 4.14556 0.141677
3 1 0.514975 1.37375 3.16742
4 2 1.92441 5.07564 4.23903
5 3 2.5609 0.472911 4.55392
6 3 -2.78133 4.36129 2.17034
7 3 -2.18676 1.15574 4.16888
8 3 1.36764 3.61302 2.99595
ITEM: TIMESTEP
1650
ITEM: NUMBER OF ATOMS
8
ITEM: BOX BOUNDS xy xz yz pp pp pp
-5.0828508141496940e+00 6.5288151695398398e+00 -1.8494276611051432e+00
-5.6521648571052352e-01 5.4407727604375484e+00 -2.2958419835047019e+00
7.3218192803468196e-01 4.3702270719653384e+00 -7.1567772527297868e-01
ITEM: ATOMS id type x y z
1 1 -3.82224 2.27328 3.67255
2 1 -0.478985 3.21411 4.29802
3 1 0.724557 1.22921 2.97683
4 2 -3.20433 -0.499171 4.30345
5 3 4.60044 1.14968 0.873614
6 3 -1.75028 4.20298 2.1553
7 3 -1.7232 0.9037 4.03542
8 3 1.924 3.48267 2.88575
ITEM: TIMESTEP
1700
ITEM: NUMBER OF ATOMS
8
ITEM: BOX BOUNDS xy xz yz pp pp pp
-4.1806698069081998e+00 6.3690578474720683e+00 -1.1785771786122370e+00
-1.0283619666380728e+00 5.5235606421211170e+00 -2.2242687808238846e+00
6.0721979962861794e-01 4.4951892003714065e+00 -1.0960353245169616e+00
ITEM: ATOMS id type x y z
1 1 4.34103 2.22777 2.90805
2 1 -0.0954248 3.48634 4.40397
3 1 1.29989 0.959242 2.88035
4 2 -0.64231 -0.00608168 0.562769
5 3 4.52512 1.07188 0.8423
6 3 -1.02009 4.15562 2.01418
7 3 -1.51855 0.45022 4.32045
8 3 2.30233 3.28032 2.94208
ITEM: TIMESTEP
1750
ITEM: NUMBER OF ATOMS
8
ITEM: BOX BOUNDS xy xz yz pp pp pp
-3.3977948253812520e+00 6.2887832635014700e+00 -4.1336740693698115e-01
-1.6549227268512872e+00 5.6740003191170665e+00 -2.2868781549427930e+00
4.5631077981858725e-01 4.6460982201814378e+00 -1.5721564077342269e+00
ITEM: ATOMS id type x y z
1 1 -1.67144 2.00899 3.02215
2 1 3.07199 4.45961 1.12348
3 1 1.21226 0.489262 2.66758
4 2 -1.04667 5.68668 0.378236
5 3 4.58957 1.05485 0.973329
6 3 -0.38751 4.19418 1.57491
7 3 -1.42664 -0.230729 4.5016
8 3 2.80897 2.97662 2.95885
ITEM: TIMESTEP
1800
ITEM: NUMBER OF ATOMS
8
ITEM: BOX BOUNDS xy xz yz pp pp pp
-3.0477000495937956e+00 6.5005036230503048e+00 2.9109010021265591e-01
-2.1288769607990341e+00 5.7112569540619837e+00 -2.4295205267561419e+00
3.8960622112398902e-01 4.7128027788760329e+00 -2.0088540067370584e+00
ITEM: ATOMS id type x y z
1 1 -1.71472 1.22194 3.7839
2 1 4.85136 3.78812 1.44915
3 1 1.60052 0.083738 2.70546
4 2 3.81826 -1.88777 4.53869
5 3 4.43909 1.03342 0.746247
6 3 0.33162 4.42584 1.52822
7 3 -1.27817 -0.896769 4.46873
8 3 2.99568 2.64735 3.10022
ITEM: TIMESTEP
1850
ITEM: NUMBER OF ATOMS
8
ITEM: BOX BOUNDS xy xz yz pp pp pp
-3.3649434519613433e+00 7.0979533319026062e+00 8.7096407048061109e-01
-2.6223649954653330e+00 5.7610980923103412e+00 -2.7291881905393454e+00
3.2721027408799985e-01 4.7751987259120234e+00 -2.4525009031549980e+00
ITEM: ATOMS id type x y z
1 1 -1.68204 0.593096 3.29991
2 1 5.42601 3.78662 1.80364
3 1 2.02966 0.21555 2.09354
4 2 3.35988 -2.59431 4.64423
5 3 4.92605 1.41974 0.690187
6 3 0.743765 4.37143 1.54507
7 3 -1.6942 -1.40635 4.46456
8 3 3.13855 2.15542 3.24891
ITEM: TIMESTEP
1900
ITEM: NUMBER OF ATOMS
8
ITEM: BOX BOUNDS xy xz yz pp pp pp
-3.7638805050462745e+00 7.5605019332647458e+00 1.2839403767392052e+00
-3.0177045802111464e+00 5.7711271121700243e+00 -3.0785529485207324e+00
3.1876317033272850e-01 4.7836458296672948e+00 -2.8378114680411310e+00
ITEM: ATOMS id type x y z
1 1 -1.70957 0.626915 3.41121
2 1 5.58906 3.62757 1.65027
3 1 1.4498 0.318688 2.15169
4 2 4.32343 3.05242 4.72549
5 3 5.06969 1.53289 0.839227
6 3 1.30117 4.48655 1.4696
7 3 -2.09788 -2.08592 3.92704
8 3 3.13223 1.66951 3.63722
ITEM: TIMESTEP
1950
ITEM: NUMBER OF ATOMS
8
ITEM: BOX BOUNDS xy xz yz pp pp pp
-4.0599219911140416e+00 7.7870325914695959e+00 1.5302597593589384e+00
-3.2035167292946674e+00 5.7005217217598716e+00 -3.3943831590033784e+00
3.1313772507152793e-01 4.7892712749284936e+00 -3.0942290075348069e+00
ITEM: ATOMS id type x y z
1 1 -2.04754 0.179818 3.61837
2 1 6.11151 3.67627 1.47943
3 1 1.47126 0.966364 1.61548
4 2 4.26619 2.65947 4.61979
5 3 5.01135 1.23533 1.14386
6 3 1.75885 4.49583 1.43158
7 3 -2.34655 -2.24394 3.8264
8 3 2.7829 1.55721 3.68576
ITEM: TIMESTEP
2000
ITEM: NUMBER OF ATOMS
8
ITEM: BOX BOUNDS xy xz yz pp pp pp
-4.0888541860422087e+00 7.7489468753381896e+00 1.6238121951271849e+00
-3.3746500892081173e+00 5.6233956526156668e+00 -3.5549535058312007e+00
2.4812094368355231e-01 4.8542880563164754e+00 -3.3424884365924630e+00
ITEM: ATOMS id type x y z
1 1 -1.60178 -0.156874 3.60508
2 1 6.56773 3.3616 1.08262
3 1 1.62488 0.752579 1.4027
4 2 4.0089 2.36058 4.66215
5 3 5.12905 1.24402 1.44965
6 3 1.96622 4.25645 1.2655
7 3 -2.76404 -2.13952 3.78927
8 3 2.59352 1.29489 3.72584
ITEM: TIMESTEP
2050
ITEM: NUMBER OF ATOMS
8
ITEM: BOX BOUNDS xy xz yz pp pp pp
-2.3660167169469846e+00 7.6848579443693126e+00 1.6982516464548580e+00
-4.4223259452533803e-02 7.6813270528016400e+00 -1.9706444190325276e+00
1.7759671389137610e-01 4.9248122861086507e+00 2.0458697933490986e+00
ITEM: ATOMS id type x y z
1 1 0.52798 5.42111 3.46238
2 1 6.05285 3.54656 1.35161
3 1 2.20425 0.559704 1.50008
4 2 3.93095 2.05405 4.67708
5 3 5.01337 1.05083 1.52076
6 3 2.23602 4.17889 0.96562
7 3 5.044 3.50328 3.84382
8 3 4.15629 6.68656 3.89007
ITEM: TIMESTEP
2100
ITEM: NUMBER OF ATOMS
8
ITEM: BOX BOUNDS xy xz yz pp pp pp
-2.1151029863872886e+00 7.6016214369303974e+00 1.7962828488442208e+00
-7.9889599854086057e-02 7.4296829889165164e+00 -1.9009983983011070e+00
1.1692524878265065e-01 4.9854837512173713e+00 1.7585593890624214e+00
ITEM: ATOMS id type x y z
1 1 0.451701 5.39633 3.34951
2 1 6.36345 2.88048 0.699045
3 1 2.22977 0.532303 0.879367
4 2 3.75431 1.66622 4.80165
5 3 4.63824 0.801985 1.53321
6 3 2.70174 4.35256 0.959145
7 3 -0.867635 3.16534 4.21698
8 3 4.0234 6.68099 3.73614
ITEM: TIMESTEP
2150
ITEM: NUMBER OF ATOMS
8
ITEM: BOX BOUNDS xy xz yz pp pp pp
-1.9422939111837554e+00 7.7302095418173717e+00 2.0326641660407478e+00
-1.6087723659306619e-01 7.1703493171702473e+00 -1.8359825354071253e+00
1.7702398877093017e-02 5.0847066011229280e+00 1.4182380805771666e+00
ITEM: ATOMS id type x y z
1 1 0.487202 4.75836 3.57614
2 1 5.87239 3.09294 0.606729
3 1 4.30504 5.77303 1.32841
4 2 3.79559 1.43215 4.98296
5 3 4.76596 1.23205 1.36084
6 3 2.5731 4.08464 0.829523
7 3 -0.565329 2.56894 4.15693
8 3 4.44717 6.41771 3.87113
ITEM: TIMESTEP
2200
ITEM: NUMBER OF ATOMS
8
ITEM: BOX BOUNDS xy xz yz pp pp pp
-1.6914363530937879e+00 8.0171636509312840e+00 2.3945268962850412e+00
-1.6803673495483240e-01 6.7494490956467006e+00 -1.6600335984475381e+00
-7.4466272506442444e-02 5.1768752725064662e+00 9.9017836069185439e-01
ITEM: ATOMS id type x y z
1 1 1.27777 4.72258 3.09416
2 1 5.91808 3.08493 0.0691383
3 1 2.51624 0.900747 1.5669
4 2 -1.70423 0.786943 5.02872
5 3 4.8329 1.11322 1.12615
6 3 2.63969 4.1709 1.0846
7 3 -0.214347 2.08558 4.48839
8 3 4.9249 5.9719 3.71325
ITEM: TIMESTEP
2250
ITEM: NUMBER OF ATOMS
8
ITEM: BOX BOUNDS xy xz yz pp pp pp
-1.5166323283860916e+00 8.3549130208342426e+00 2.7940415170331887e+00
-1.0820098853637550e-01 6.1030287978831455e+00 -1.5469948245850325e+00
-1.4145439212577005e-01 5.2438633921257916e+00 4.0359380934675315e-01
ITEM: ATOMS id type x y z
1 1 2.61822 5.45595 2.97109
2 1 6.12999 3.40486 -0.152355
3 1 2.15719 1.56927 1.67355
4 2 8.25479 5.61529 -0.115787
5 3 4.72343 1.19887 1.17416
6 3 2.94358 3.86936 0.920573
7 3 -0.0181217 1.24738 4.56069
8 3 5.55297 5.40041 3.62605
ITEM: TIMESTEP
2300
ITEM: NUMBER OF ATOMS
8
ITEM: BOX BOUNDS xy xz yz pp pp pp
-1.5449294255406518e+00 8.7110503249133764e+00 3.1634679254668319e+00
-3.0096370003303807e-01 5.6810467371681224e+00 -1.5885810260941011e+00
-2.2555747548573901e-01 5.3279664754857627e+00 -2.1115096286492993e-01
ITEM: ATOMS id type x y z
1 1 3.42085 4.98153 2.88748
2 1 4.63513 2.86498 5.10938
3 1 2.7359 1.00199 1.42677
4 2 8.44958 5.64911 -0.204704
5 3 5.04494 1.35169 1.31688
6 3 2.82918 3.8405 0.707149
7 3 0.0507909 0.497991 4.87439
8 3 5.88302 4.90948 3.50418
ITEM: TIMESTEP
2350
ITEM: NUMBER OF ATOMS
8
ITEM: BOX BOUNDS xy xz yz pp pp pp
-3.8112061419959469e+00 5.5669493513543618e+00 -2.0235691053020850e+00
-7.7367696136276465e-01 5.6031190374499253e+00 -1.8119216853394913e+00
-3.1304755313495658e-01 5.4154565531349856e+00 -7.6179192391285533e-01
ITEM: ATOMS id type x y z
1 1 -2.3033 4.70758 2.82081
2 1 0.415975 3.02891 -0.20313
3 1 2.57173 1.13682 1.7686
4 2 3.5079 -0.690549 5.33912
5 3 -0.109871 1.21943 1.40719
6 3 2.53916 3.96421 0.535455
7 3 0.00228319 -0.465287 4.99411
8 3 0.736884 4.59002 3.42906
ITEM: TIMESTEP
2400
ITEM: NUMBER OF ATOMS
8
ITEM: BOX BOUNDS xy xz yz pp pp pp
-3.7887694877891045e+00 5.5423637281592075e+00 -1.7396435871749139e+00
-1.0500036277092080e+00 5.4843268586220200e+00 -2.0979961724549705e+00
-3.6828114729780026e-01 5.4706901472978284e+00 -1.1569107690872014e+00
ITEM: ATOMS id type x y z
1 1 -1.97686 4.57497 2.56682
2 1 -0.0812018 3.11197 -0.235681
3 1 2.80694 0.881247 1.48585
4 2 3.20443 -1.09633 5.47286
5 3 -0.376565 1.36715 1.28095
6 3 2.67528 3.59631 0.18234
7 3 -0.254003 -1.22236 5.40851
8 3 1.13945 4.88262 3.52945
ITEM: TIMESTEP
2450
ITEM: NUMBER OF ATOMS
8
ITEM: BOX BOUNDS xy xz yz pp pp pp
-3.9007454827089090e+00 5.5604234573904634e+00 -1.5948495614446383e+00
-1.4029155551811490e+00 5.4663092695096580e+00 -2.3367064638737958e+00
-3.3340870461825522e-01 5.4358177046182856e+00 -1.5278402856715039e+00
ITEM: ATOMS id type x y z
1 1 -2.26636 4.37689 2.77282
2 1 -2.41946 1.43306 5.38599
3 1 1.9606 1.38488 1.39954
4 2 3.73369 5.36796 -0.382119
5 3 -0.452289 1.01172 1.47843
6 3 3.13632 3.40539 0.199244
7 3 -2.13772 3.6019 5.13958
8 3 2.67597 -0.200633 3.64673
ITEM: TIMESTEP
2500
ITEM: NUMBER OF ATOMS
8
ITEM: BOX BOUNDS xy xz yz pp pp pp
-3.9716910367270697e+00 5.6011237362482156e+00 -1.4138229387191554e+00
-1.8191883247019591e+00 5.4915147344508908e+00 -2.5479783617596863e+00
-1.9360821518969829e-01 5.2960172151897282e+00 -1.9189075902510822e+00
ITEM: ATOMS id type x y z
1 1 -2.55095 4.0803 2.68032
2 1 0.0761691 2.969 0.0896005
3 1 2.8929 0.636503 1.63859
4 2 1.4927 3.40046 5.16284
5 3 -0.345739 0.953997 1.60564
6 3 3.17302 3.59607 0.300698
7 3 -2.12446 3.37716 4.83163
8 3 2.19742 -0.679912 3.7038
ITEM: TIMESTEP
2550
ITEM: NUMBER OF ATOMS
8
ITEM: BOX BOUNDS xy xz yz pp pp pp
-3.9227375095349455e+00 5.6392531707672191e+00 -1.2018122764588299e+00
-2.3067725853269176e+00 5.5372660967863636e+00 -2.6729060623088867e+00
-9.0859075212855966e-02 5.1932680752128855e+00 -2.3607404885405643e+00
ITEM: ATOMS id type x y z
1 1 -1.82063 4.16525 2.81501
2 1 -2.90106 0.4628 5.13195
3 1 2.85792 0.445957 1.55417
4 2 4.21908 5.43002 -0.0627641
5 3 -0.223607 1.11311 1.77979
6 3 3.29227 3.73566 0.33356
7 3 -2.22046 2.74082 4.74703
8 3 2.23615 -1.32993 3.48929
ITEM: TIMESTEP
2600
ITEM: NUMBER OF ATOMS
8
ITEM: BOX BOUNDS xy xz yz pp pp pp
-3.8742627558306424e+00 5.6937075396942713e+00 -9.7556279451903172e-01
-2.8425676562976774e+00 5.6115770461288488e+00 -2.7962264216173325e+00
-7.1632383521356147e-03 5.1095722383521647e+00 -2.8222246101688437e+00
ITEM: ATOMS id type x y z
1 1 -0.0373773 -1.42967 3.01372
2 1 -0.137088 2.84921 0.151672
3 1 2.99938 -0.0626248 1.64179
4 2 5.45648 -0.0403267 -0.10648
5 3 -0.414984 0.940675 1.79346
6 3 3.47571 3.99312 0.765842
7 3 -2.21821 2.17329 4.54628
8 3 2.26394 -1.85805 3.25753
ITEM: TIMESTEP
2650
ITEM: NUMBER OF ATOMS
8
ITEM: BOX BOUNDS xy xz yz pp pp pp
-3.9267701771072390e+00 5.7976774409932927e+00 -6.9553997685672464e-01
-3.4665300027825974e+00 5.7347188413764840e+00 -3.0247867592572142e+00
4.9019717980326671e-02 5.0533892820197028e+00 -3.3230451614061263e+00
ITEM: ATOMS id type x y z
1 1 -1.83818 3.63159 3.05191
2 1 -2.89835 -0.345726 4.90176
3 1 3.22045 -0.140261 1.4669
4 2 1.8693 2.24953 4.97326
5 3 -0.497991 0.929945 1.70679
6 3 3.96214 3.86313 0.660591
7 3 -2.16148 1.7541 4.46232
8 3 1.9487 -2.15827 3.61167
ITEM: TIMESTEP
2700
ITEM: NUMBER OF ATOMS
8
ITEM: BOX BOUNDS xy xz yz pp pp pp
-3.8331915523288869e+00 5.8238060978068820e+00 -3.3099775642277390e-01
-4.1277380963643093e+00 5.8634788709096384e+00 -3.2696216980992228e+00
3.5268888173463075e-02 5.0671401118265624e+00 -3.8554932254546874e+00
ITEM: ATOMS id type x y z
1 1 -1.09252 2.67295 2.8058
2 1 0.27572 2.8066 0.342903
3 1 3.07679 -0.349984 1.33929
4 2 1.99092 1.98721 4.95682
5 3 -0.508193 0.801806 1.81659
6 3 4.28441 4.07728 0.406035
7 3 -2.0654 1.31799 4.75091
8 3 1.69479 -2.83503 3.47848
ITEM: TIMESTEP
2750