ITEM: TIMESTEP
0
ITEM: NUMBER OF ATOMS
64
ITEM: BOX BOUNDS xy xz yz pp pp pp
0.0000000000000000e+00 1.6773702000000000e+01 -0.0000000000000000e+00
0.0000000000000000e+00 1.6773702000000000e+01 5.5912340000000000e+00
0.0000000000000000e+00 1.0204818000000000e+01 5.5912340000000000e+00
ITEM: ATOMS id type x y z
1 1 2.79562 2.79562 0
2 1 5.59123 5.59123 5.10241
3 1 2.79562 8.38685 0
4 1 5.59123 11.1825 5.10241
5 1 8.38685 2.79562 0
6 1 11.1825 5.59123 5.10241
7 1 8.38685 8.38685 0
8 1 11.1825 11.1825 5.10241
9 1 5.59123 2.79562 2.5512
10 1 8.38685 5.59123 7.65361
11 1 5.59123 8.38685 2.5512
12 1 8.38685 11.1825 7.65361
13 1 11.1825 2.79562 2.5512
14 1 13.9781 5.59123 7.65361
15 1 11.1825 8.38685 2.5512
16 1 13.9781 11.1825 7.65361
17 1 2.79562 5.59123 2.5512
18 1 5.59123 8.38685 7.65361
19 1 2.79562 11.1825 2.5512
20 1 5.59123 13.9781 7.65361
21 1 8.38685 5.59123 2.5512
22 1 11.1825 8.38685 7.65361
23 1 8.38685 11.1825 2.5512
24 1 11.1825 13.9781 7.65361
25 2 0 0 0
26 2 2.79562 2.79562 5.10241
27 2 0 5.59123 0
28 2 2.79562 8.38685 5.10241
29 2 5.59123 0 0
30 2 8.38685 2.79562 5.10241
31 2 5.59123 5.59123 0
32 2 8.38685 8.38685 5.10241
33 3 4.40014 1.1911 1.1919
34 3 7.19576 3.98671 6.29431
35 3 4.40014 6.78233 1.1919
36 3 7.19576 9.57795 6.29431
37 3 9.99138 1.1911 1.1919
38 3 12.787 3.98671 6.29431
39 3 9.99138 6.78233 1.1919
40 3 12.787 9.57795 6.29431
41 3 1.1911 4.40014 1.1919
42 3 3.98672 7.19576 6.29431
43 3 1.1911 9.99138 1.1919
44 3 3.98672 12.787 6.29431
45 3 6.78233 4.40014 1.1919
46 3 9.57795 7.19576 6.29431
47 3 6.78233 9.99138 1.1919
48 3 9.57795 12.787 6.29431
49 3 3.98671 3.98671 3.91051
50 3 6.78233 6.78233 9.01292
51 3 3.98671 9.57794 3.91051
52 3 6.78233 12.3736 9.01292
53 3 9.57794 3.98671 3.91051
54 3 12.3736 6.78233 9.01292
55 3 9.57794 9.57794 3.91051
56 3 12.3736 12.3736 9.01292
57 3 7.19575 7.19575 3.91051
58 3 9.99137 9.99137 9.01292
59 3 7.19575 12.787 3.91051
60 3 9.99137 15.5826 9.01292
61 3 12.787 7.19575 3.91051
62 3 15.5826 9.99137 9.01292
63 3 12.787 12.787 3.91051
64 3 15.5826 15.5826 9.01292
ITEM: TIMESTEP
50
ITEM: NUMBER OF ATOMS
64
ITEM: BOX BOUNDS xy xz yz pp pp pp
-1.0434326220003656e-01 1.6978557413657143e+01 -5.4545787021564084e-03
-9.6173592082772430e-02 1.6956316906889342e+01 5.6972007301592615e+00
-1.4207971024509991e-01 1.0346897710245091e+01 5.6776753148065717e+00
ITEM: ATOMS id type x y z
1 1 3.05419 2.89016 0.357729
2 1 5.60637 5.74754 5.12923
3 1 2.80516 8.74044 -0.134665
4 1 5.4755 11.0413 5.03266
5 1 8.66233 3.16871 -0.417252
6 1 11.1885 5.04669 5.14781
7 1 8.19644 8.36585 -0.134856
8 1 11.4408 11.1351 4.82587
9 1 5.79627 2.74254 2.28057
10 1 8.42812 5.69028 7.8071
11 1 5.33477 8.85938 2.2714
12 1 8.47714 11.2478 8.209
13 1 11.0138 2.67106 2.274
14 1 14.2827 5.45569 7.88929
15 1 11.3534 7.80797 2.66045
16 1 13.9347 11.3634 7.591
17 1 3.0362 5.71618 2.4893
18 1 6.00478 8.55892 7.84919
19 1 2.60965 11.1669 2.35365
20 1 5.52321 14.122 8.00636
21 1 8.2445 5.70411 2.39309
22 1 11.1958 8.44337 7.50296
23 1 8.63089 11.5535 2.21909
24 1 11.0236 14.4475 7.67695
25 2 -0.0910158 -0.116133 -0.105297
26 2 2.75099 2.6404 4.93093
27 2 -0.014328 5.51313 -0.159735
28 2 2.69197 8.2636 5.13767
29 2 5.90264 -0.0591631 0.00106104
30 2 8.30255 2.61339 5.23174
31 2 5.48491 5.73526 -0.201814
32 2 8.37538 8.61632 4.93759
33 3 4.51659 0.960984 1.06933
34 3 7.011 3.78086 6.1824
35 3 4.37432 7.26106 0.80124
36 3 7.37442 9.76217 6.24976
37 3 10.0071 1.23221 0.706771
38 3 13.2008 3.72331 6.34099
39 3 9.95373 6.61303 0.985958
40 3 12.8654 9.72464 6.10189
41 3 1.36482 4.58629 1.03192
42 3 3.89519 7.16038 6.49214
43 3 0.835045 9.91663 1.21797
44 3 3.96745 12.7497 6.07972
45 3 6.87377 4.4476 0.843889
46 3 9.5337 7.15757 6.01476
47 3 7.13818 10.0599 1.04172
48 3 9.52798 12.8383 6.30718
49 3 4.13897 3.83278 3.77451
50 3 6.936 6.88374 9.50762
51 3 3.6974 9.44975 3.85099
52 3 6.96532 12.557 9.42071
53 3 9.50742 3.7153 4.01433
54 3 12.536 7.04471 9.3816
55 3 9.63887 9.85786 3.80534
56 3 12.2616 12.7095 9.12238
57 3 7.20011 7.38456 3.88125
58 3 10.1396 9.85757 9.48123
59 3 7.23414 12.7543 4.02977
60 3 10.2123 15.8824 9.32182
61 3 12.799 6.86619 4.21196
62 3 15.7996 10.3426 8.88236
63 3 12.7382 13.0217 3.84354
64 3 15.6465 15.5963 9.39017
ITEM: TIMESTEP
100
ITEM: NUMBER OF ATOMS
64
ITEM: BOX BOUNDS xy xz yz pp pp pp
-1.1613674550379027e-01 1.7015249326469473e+01 1.4443631724114968e-02
-7.2103105031282588e-02 1.6883567293788651e+01 5.7022009492415666e+00
-2.7225539777611374e-01 1.0477073397776111e+01 5.6289961887573741e+00
ITEM: ATOMS id type x y z
1 1 2.80256 2.53425 0.50569
2 1 5.63961 5.42711 5.01502
3 1 2.58203 8.89408 -0.239358
4 1 5.64679 10.8555 4.92048
5 1 14.2869 8.74222 10.2389
6 1 11.3356 5.3071 5.47681
7 1 14.4379 13.7231 10.4032
8 1 11.1282 11.4801 4.96021
9 1 5.8527 2.76079 2.54764
10 1 8.3507 5.6184 7.65758
11 1 5.7563 8.49745 2.2325
12 1 8.60904 11.0839 7.64496
13 1 11.3807 3.15558 2.29702
14 1 14.0848 5.64494 8.1224
15 1 11.0728 8.35043 2.65702
16 1 14.0016 11.3124 7.3951
17 1 2.7795 5.79233 2.4852
18 1 5.61378 8.20958 8.08411
19 1 2.59285 11.2802 2.68606
20 1 5.63131 13.6789 7.37347
21 1 8.35824 5.52615 3.06867
22 1 11.1163 8.28212 7.96944
23 1 8.54291 11.3405 2.55207
24 1 11.3853 13.951 7.50923
25 2 11.2067 -0.00155981 -0.17023
26 2 2.7738 13.9638 4.9651
27 2 5.7462 11.3791 10.4082
28 2 13.9808 8.18824 5.1887
29 2 5.70867 0.106125 -0.218233
30 2 8.2325 13.9593 5.19372
31 2 11.2726 11.3927 10.3531
32 2 8.31495 8.41305 5.05399
33 3 4.63365 0.886329 1.32084
34 3 7.12956 3.96517 6.3284
35 3 4.20205 6.87454 0.788313
36 3 7.31593 9.59054 6.26958
37 3 10.1015 1.52457 0.34495
38 3 13.1587 3.81722 6.20515
39 3 9.95226 6.53966 1.05989
40 3 12.5831 9.48919 6.23559
41 3 1.11237 4.486 0.898355
42 3 4.08767 7.21921 6.41549
43 3 0.878521 10.0057 1.13268
44 3 4.08398 12.5341 5.88213
45 3 6.97926 4.73144 0.849792
46 3 9.65454 7.06585 5.99165
47 3 7.07612 10.1799 0.692775
48 3 9.48598 12.8696 6.41922
49 3 3.99285 3.96568 3.68191
50 3 7.10659 6.52585 9.67105
51 3 3.69705 9.26537 4.04256
52 3 6.92314 12.7625 9.42906
53 3 9.47018 3.77437 4.10916
54 3 12.6175 7.00171 9.38882
55 3 9.77516 9.58071 3.8394
56 3 12.4506 12.4474 8.99909
57 3 6.94012 7.4178 3.92202
58 3 10.1089 10.0712 9.44679
59 3 7.10314 12.7446 4.06131
60 3 10.225 15.9932 9.24039
61 3 12.8607 6.70072 4.34289
62 3 16.1403 10.3309 8.9839
63 3 12.9034 12.9902 3.68635
64 3 15.9407 15.5452 9.40167
ITEM: TIMESTEP
150
ITEM: NUMBER OF ATOMS
64
ITEM: BOX BOUNDS xy xz yz pp pp pp
2.2748775135588595e-02 1.6762980142090701e+01 3.5468455892234019e-02
1.1818938264428702e-01 1.6452261737246786e+01 5.5677924613340588e+00
-2.6363622119844621e-01 1.0468454221198451e+01 5.3879831198910919e+00
ITEM: ATOMS id type x y z
1 1 2.63944 2.49601 0.158969
2 1 5.42958 5.77099 5.36897
3 1 8.54043 13.8074 10.2952
4 1 5.84145 10.6037 4.97589
5 1 13.7564 8.89432 10.3804
6 1 11.1097 5.37192 5.09431
7 1 14.08 13.7365 10.2442
8 1 11.2071 10.724 5.0614
9 1 5.64348 3.01795 2.31337
10 1 8.56776 5.61876 7.85896
11 1 5.65432 8.5332 2.14653
12 1 7.87627 11.0319 8.07751
13 1 10.9475 2.61954 2.37133
14 1 13.9981 5.4558 7.68568
15 1 11.5183 8.19236 2.32737
16 1 14.2704 10.6365 7.5534
17 1 2.52204 5.4427 2.24947
18 1 5.81236 7.91605 8.27436
19 1 3.02993 10.9155 2.69711
20 1 5.56855 13.8152 7.42399
21 1 8.45476 6.0331 2.49189
22 1 10.8604 8.23834 7.88586
23 1 8.46254 11.1438 1.96268
24 1 11.338 13.759 8.06052
25 2 0.158384 11.1322 -0.222377
26 2 2.69912 2.80919 4.90197
27 2 5.70252 11.196 10.4514
28 2 13.8569 8.14281 5.26014
29 2 11.1499 5.63642 10.4344
30 2 8.35522 13.8253 5.12653
31 2 11.2432 11.0273 10.3109
32 2 8.19567 8.05049 5.25022
33 3 4.66341 1.17703 1.29312
34 3 7.07742 4.08057 6.30927
35 3 4.39534 6.68689 0.818987
36 3 7.12532 8.96954 6.5955
37 3 10.0226 1.43093 0.714468
38 3 12.9329 3.88327 6.36236
39 3 10.018 6.85328 1.22272
40 3 12.4492 9.25775 6.47784
41 3 1.1631 4.38103 0.772079
42 3 4.006 6.98167 6.59781
43 3 1.23416 10.1025 1.36528
44 3 3.93665 12.3567 5.88393
45 3 6.81364 4.83061 1.24465
46 3 9.58594 6.9836 6.34214
47 3 6.84619 9.7379 0.570677
48 3 9.52657 12.6572 6.40205
49 3 3.92199 4.16785 3.7068
50 3 7.08515 6.40591 9.26032
51 3 3.95009 9.05753 4.00212
52 3 6.73182 12.5334 9.14742
53 3 9.53945 4.01034 4.01783
54 3 12.3756 6.83288 9.23784
55 3 9.33915 9.50083 3.94505
56 3 12.7472 11.8521 9.13503
57 3 6.88849 7.14201 3.9578
58 3 9.99377 10.0008 9.14905
59 3 7.311 12.6205 3.90433
60 3 10.0774 15.4866 9.08285
61 3 12.6446 7.07656 3.93624
62 3 15.805 9.99264 9.11504
63 3 12.7105 12.6324 3.71781
64 3 15.831 15.399 9.0754
ITEM: TIMESTEP
200
ITEM: NUMBER OF ATOMS
64
ITEM: BOX BOUNDS xy xz yz pp pp pp
4.8159746592118857e-02 1.6831171852004140e+01 1.0861380723911999e-01
2.0505742148277406e-01 1.6198172019162566e+01 5.5882497913571303e+00
-3.3832254478155921e-01 1.0543140544781561e+01 5.2207614406453606e+00
ITEM: ATOMS id type x y z
1 1 8.6489 8.32695 10.0972
2 1 5.23776 5.84256 4.96905
3 1 2.65834 8.52013 -0.183777
4 1 6.13021 10.7405 5.26432
5 1 8.51769 2.78367 -0.142153
6 1 11.5 5.52655 5.19758
7 1 14.2555 13.5125 10.0695
8 1 10.9422 10.8597 5.16614
9 1 5.63683 2.94085 2.8486
10 1 8.57194 5.0756 7.59478
11 1 5.79673 7.94036 2.19708
12 1 8.52334 10.7914 7.57813
13 1 10.998 3.02805 2.13425
14 1 13.5792 5.10079 8.17399
15 1 10.9511 8.9931 2.52888
16 1 14.1473 11.0061 7.42161
17 1 2.99982 6.02252 2.13075
18 1 5.25827 7.72319 8.33889
19 1 3.57339 11.1216 2.73134
20 1 5.19597 13.7415 7.42829
21 1 8.5641 5.67589 2.20158
22 1 11.211 8.09093 7.7961
23 1 7.9786 10.7233 2.13186
24 1 11.3196 12.9592 7.95324
25 2 5.75162 5.49916 10.4745
26 2 13.733 2.76746 5.05572
27 2 5.74173 10.853 10.5133
28 2 14.0152 8.10652 5.02304
29 2 11.3584 15.9871 10.4753
30 2 8.63091 2.90048 4.89674
31 2 5.71248 5.61751 -0.243427
32 2 8.19595 8.01557 5.44259
33 3 4.52965 1.37893 0.657152
34 3 6.96075 3.92604 5.88576
35 3 4.48594 6.99374 0.544889
36 3 7.03049 9.04884 6.6455
37 3 9.83827 1.13401 0.788491
38 3 12.5364 3.75619 6.44718
39 3 10.2247 7.25602 0.783234
40 3 12.8078 9.41751 6.27948
41 3 1.34497 4.35374 0.653607
42 3 3.76266 6.96636 6.67163
43 3 1.78029 10.1799 0.930246
44 3 4.27908 12.3119 5.78707
45 3 6.76579 4.25975 1.02758
46 3 9.7537 6.94232 6.20382
47 3 7.00056 9.42913 0.593726
48 3 9.73666 12.3451 6.36927
49 3 3.92678 4.22022 4.0247
50 3 7.035 6.61005 9.36437
51 3 4.32383 9.35008 4.18071
52 3 6.64899 12.1784 9.31624
53 3 9.83431 4.26117 3.81107
54 3 12.3678 6.84173 9.65586
55 3 9.03662 9.52483 3.96983
56 3 12.833 11.6774 9.54301
57 3 7.21834 6.90184 3.95103
58 3 10.0333 9.79611 9.34314
59 3 7.60006 12.4405 3.83703
60 3 10.1175 14.7414 9.4388
61 3 12.6923 7.28919 3.67343
62 3 15.341 9.69746 9.71137
63 3 12.561 12.2916 4.13471
64 3 15.6013 15.1891 9.29379
ITEM: TIMESTEP
250
ITEM: NUMBER OF ATOMS
64
ITEM: BOX BOUNDS xy xz yz pp pp pp
-8.3435775202582718e-03 1.7187019286568788e+01 2.8201584882312897e-01
1.4954495571822335e-01 1.6198609870669689e+01 5.7141918602254025e+00
-4.5703154452462513e-01 1.0661849544524628e+01 5.1656868263879430e+00
ITEM: ATOMS id type x y z
1 1 3.00435 3.04466 -0.288587
2 1 5.62707 5.74557 5.07895
3 1 8.61437 13.2877 10.3358
4 1 6.64101 10.8219 4.83127
5 1 8.2321 2.59948 -0.150143
6 1 11.6607 5.67941 4.88301
7 1 9.06957 8.22722 -0.303678
8 1 11.0971 10.7857 4.8705
9 1 5.19692 2.61605 2.59377
10 1 8.5634 5.4887 7.64817
11 1 6.09498 8.34263 2.52347
12 1 8.93687 10.5394 7.80953
13 1 11.7692 2.76187 2.42466
14 1 13.8707 5.40548 7.72032
15 1 11.5696 8.6515 1.86554
16 1 14.6813 10.8852 8.04273
17 1 2.98179 5.58909 2.37382
18 1 5.28851 8.28557 7.76214
19 1 3.13157 11.0714 2.75996
20 1 6.48521 13.7642 7.66074
21 1 8.44397 5.37149 1.95549
22 1 11.8172 8.12947 7.79999
23 1 8.5608 10.8023 2.12778
24 1 11.5518 13.1202 7.87297
25 2 5.76189 5.35384 10.5774
26 2 14.1619 13.4719 5.28408
27 2 5.90246 10.865 10.6226
28 2 3.0427 8.4254 4.95161
29 2 11.5128 15.9765 10.6669
30 2 8.58123 2.79794 4.70688
31 2 5.70443 5.54302 -0.214787
32 2 8.39165 8.00315 5.40606
33 3 4.35618 1.13926 0.86604
34 3 7.24993 4.07247 5.99123
35 3 4.57877 6.71633 0.842204
36 3 7.24594 9.09765 6.64023
37 3 10.2056 0.910452 1.14235
38 3 12.6793 3.60996 6.59378
39 3 10.3915 6.90157 1.1149
40 3 13.0022 9.71223 6.1591
41 3 1.47876 4.66716 0.669245
42 3 3.55434 6.8469 6.20112
43 3 1.72709 10.2746 0.762853
44 3 4.65738 12.4882 5.99676
45 3 6.64535 4.14455 1.02682
46 3 9.8018 7.00853 6.39202
47 3 7.01224 9.65009 0.688984
48 3 9.83026 12.5717 6.37001
49 3 3.47675 4.11127 4.00516
50 3 6.92036 6.45896 9.19979
51 3 4.62782 9.34129 3.97981
52 3 6.75524 11.7002 9.05088
53 3 10.0654 3.97823 3.68658
54 3 12.5303 6.2297 9.46588
55 3 9.43122 9.55366 4.15251
56 3 12.656 11.7806 9.56603
57 3 7.51822 6.67853 3.90537
58 3 10.4569 9.66915 9.30853
59 3 7.6352 12.5778 3.5935
60 3 10.2548 15.083 9.33337
61 3 12.9909 7.50098 3.5505
62 3 15.6 9.61237 9.92684
63 3 12.9855 12.4007 3.99339
64 3 16.17 15.1989 9.28776
ITEM: TIMESTEP
300
ITEM: NUMBER OF ATOMS
64
ITEM: BOX BOUNDS xy xz yz pp pp pp
-8.7648720200483865e-04 1.7407259704354669e+01 4.5186376726321975e-01
7.6711480593584902e-02 1.6189586546797024e+01 5.7720514498894504e+00
-4.6987497942350576e-01 1.0674692979423517e+01 5.0838300273906407e+00
ITEM: ATOMS id type x y z
1 1 3.30547 2.93043 -0.521166
2 1 5.33571 5.23425 4.76692
3 1 3.92141 8.4747 -0.291489
4 1 6.0522 10.9662 5.2274
5 1 8.65599 2.39769 -0.472379
6 1 11.476 5.29665 5.28952
7 1 8.66289 8.34167 -0.635041
8 1 11.3613 11.808 4.8759
9 1 5.23949 2.95637 2.46295
10 1 8.57104 5.96934 8.06095
11 1 6.34943 7.60742 1.95003
12 1 9.6245 9.84315 6.76618
13 1 11.5516 2.58658 2.22069
14 1 14.672 4.88877 7.84618
15 1 11.4049 8.74686 2.40175
16 1 14.5466 11.1238 8.19572
17 1 2.53587 5.67476 2.44267
18 1 5.51531 8.01625 7.75121
19 1 3.09891 10.5912 2.01092
20 1 6.70838 13.5419 7.87688
21 1 8.39927 5.37972 2.27767
22 1 12.1551 7.97984 7.83009
23 1 8.75199 11.3436 2.16907
24 1 11.5905 13.6355 8.30193
25 2 5.95973 5.02053 10.5884
26 2 14.6299 13.5329 5.27924
27 2 11.335 5.51707 -0.460974
28 2 14.2753 8.58561 5.0406
29 2 5.938 11.0872 -0.45738
30 2 8.37444 2.78407 4.89957
31 2 5.72389 5.50726 -0.446647
32 2 8.7792 7.94437 5.23952
33 3 4.37305 1.07515 1.09164
34 3 7.50916 4.28147 6.22191
35 3 4.67171 6.60807 0.870938
36 3 7.46612 9.01106 6.45652
37 3 10.1796 1.20983 0.859491
38 3 12.9019 3.65879 6.59101
39 3 10.1238 6.58697 0.941251
40 3 13.3405 9.77281 6.49612
41 3 1.60328 4.51008 0.649253
42 3 4.04435 7.113 6.00868
43 3 1.81871 9.55293 0.28899
44 3 4.62413 12.4586 6.51633
45 3 6.68322 4.26739 0.912312
46 3 10.2396 7.12963 6.43691
47 3 7.13616 9.8659 0.700999
48 3 9.68312 12.3678 6.31726
49 3 3.60148 3.88426 3.86147
50 3 6.52542 6.56153 9.23714
51 3 4.64114 9.30009 3.93751
52 3 6.85399 11.6389 9.38223
53 3 10.0261 3.46593 3.76409
54 3 12.608 6.00747 9.35521
55 3 9.88993 9.38981 4.06437
56 3 12.9237 11.9373 9.70924
57 3 7.42221 6.88801 3.78636
58 3 10.4777 9.17841 9.39345
59 3 7.63408 12.9296 3.57592
60 3 10.2984 15.3706 9.35112
61 3 12.8591 7.67567 3.72963
62 3 15.8415 9.36506 9.65875
63 3 13.593 12.3309 3.84857
64 3 16.4632 14.8036 9.55034
ITEM: TIMESTEP
350
ITEM: NUMBER OF ATOMS
64
ITEM: BOX BOUNDS xy xz yz pp pp pp
9.0909783910565700e-02 1.7501305953649524e+01 6.6285144722021649e-01
9.1116182106247834e-02 1.5973907748574328e+01 5.7468962903398682e+00
-3.7776720909497286e-01 1.0582585209094987e+01 4.8825559306806081e+00
ITEM: ATOMS id type x y z
1 1 8.62462 7.22877 10.3291
2 1 5.89255 5.40253 5.14127
3 1 3.90772 8.58907 -0.380611
4 1 6.21853 11.0413 4.97906
5 1 14.2549 7.58648 10.4666
6 1 11.363 5.25633 4.99379
7 1 8.79455 8.39353 -0.288313
8 1 11.728 11.3924 4.94802
9 1 5.54383 2.9299 2.3354
10 1 8.54879 5.70209 7.48555
11 1 6.2501 7.90409 1.79122
12 1 10.2156 9.65235 6.74756
13 1 11.6595 2.52993 2.09824
14 1 14.4642 5.1333 7.82948
15 1 11.3149 8.2424 1.84792
16 1 14.5577 11.0571 8.13379
17 1 3.17778 6.01883 2.48726
18 1 5.99532 8.43867 7.59409
19 1 3.56842 10.4886 2.10471
20 1 7.67233 13.3636 8.23595
21 1 8.79753 4.96207 2.68139
22 1 12.1209 7.80864 7.87231
23 1 8.68194 11.5276 2.01369
24 1 12.0799 13.4228 7.77227
25 2 6.49834 15.5972 10.5102
26 2 3.86764 13.5876 5.1197
27 2 11.2158 5.29133 -0.370753
28 2 14.4516 8.25326 5.21926
29 2 11.4722 5.12349 10.4978
30 2 8.35796 2.63156 5.24153
31 2 11.6394 10.27 10.6249
32 2 9.07164 7.99076 4.85909
33 3 4.29462 1.29892 0.772279
34 3 7.2905 4.0917 6.4299
35 3 4.50349 6.47425 0.647026
36 3 7.78101 9.06052 6.10105
37 3 9.92244 1.07963 0.821776
38 3 12.7935 3.65953 6.4123
39 3 9.95682 6.51556 0.772249
40 3 13.397 9.55971 6.49868
41 3 1.47902 4.01912 0.851675
42 3 4.3217 6.84021 6.27885
43 3 1.97005 9.43913 0.619544
44 3 4.59721 12.4289 6.53012
45 3 7.27837 4.21324 0.609146
46 3 10.3147 6.97234 6.23163
47 3 7.46978 9.87745 0.824103
48 3 9.74831 12.1656 6.59263
49 3 4.04179 3.9597 3.99612
50 3 6.90094 6.1151 9.4077
51 3 4.4992 9.40301 3.84766
52 3 7.1516 11.4347 9.65418
53 3 10.0377 3.23115 4.16928
54 3 12.867 6.13851 9.45857
55 3 10.1117 9.64127 4.06492
56 3 12.5183 12.0235 9.6317
57 3 7.55264 6.85163 3.71126
58 3 10.5028 9.20123 9.14642
59 3 7.54332 12.7068 4.123
60 3 10.6897 15.3296 9.22418
61 3 12.8361 7.4877 4.05299
62 3 15.7484 9.14179 9.26971
63 3 13.809 12.1897 3.83578
64 3 16.1672 14.5934 9.46694
ITEM: TIMESTEP
400
ITEM: NUMBER OF ATOMS
64
ITEM: BOX BOUNDS xy xz yz pp pp pp
1.4238278075302091e-01 1.7808548424760652e+01 9.7652187445644045e-01
7.9476465754519054e-02 1.5740319103021658e+01 5.7919413310572390e+00
-3.2498674790042781e-01 1.0529804747900446e+01 4.6373275687762190e+00
ITEM: ATOMS id type x y z
1 1 8.70915 8.23211 10.3802
2 1 6.5055 5.48391 5.16063
3 1 9.64236 12.4496 10.059
4 1 5.91373 10.5672 5.31291
5 1 9.10973 2.9105 -0.282854
6 1 11.5558 5.10806 4.5466
7 1 14.9365 12.9663 10.4829
8 1 12.2367 11.0422 5.18978
9 1 6.03501 2.86809 2.10186
10 1 9.08555 5.17128 7.39284
11 1 6.31243 7.97 2.39066
12 1 10.0888 9.75368 6.92224
13 1 11.165 2.15758 2.49205
14 1 14.0459 4.88554 7.5998
15 1 11.7309 8.16136 2.46658
16 1 14.4834 10.6269 8.05704
17 1 2.90043 4.90883 2.29177
18 1 6.56768 7.25612 7.76456
19 1 4.0944 11.0784 2.3444
20 1 6.57006 12.7338 7.83992
21 1 9.12161 4.7721 2.2089
22 1 12.2017 7.56189 7.52536
23 1 8.88704 10.9338 2.89654
24 1 12.1894 13.8074 7.26024
25 2 17.7366 15.477 10.5016
26 2 3.21829 2.66628 5.00216
27 2 17.1242 10.0442 10.5137
28 2 14.4789 7.90475 5.24444
29 2 11.6295 4.9421 10.3889
30 2 9.36596 13.2698 5.43711
31 2 11.8359 10.1868 10.4814
32 2 9.16382 8.16496 4.65632
33 3 4.65356 1.54735 0.790002
34 3 7.20316 3.50325 6.62098
35 3 4.71298 6.35735 0.967256
36 3 7.83635 9.19902 5.97621
37 3 9.75159 0.788414 1.25384
38 3 12.6156 3.83743 6.096
39 3 10.2494 6.437 1.05385
40 3 13.366 9.30671 6.37112
41 3 1.41975 3.94399 1.0755
42 3 4.59523 6.74345 6.51856
43 3 2.14913 9.87176 0.94542
44 3 5.10247 12.3931 6.37072
45 3 7.22803 4.41879 0.850296
46 3 10.0636 6.84658 5.96894
47 3 7.3838 9.91806 1.02701
48 3 10.1924 12.1253 6.95068
49 3 4.48188 3.85666 4.02052
50 3 7.24372 5.44029 9.21581
51 3 4.89212 8.97877 3.86772
52 3 7.69918 11.0285 9.58465
53 3 9.78728 3.24026 4.37176
54 3 12.9235 6.12293 9.42561
55 3 10.3843 9.49708 3.8666
56 3 12.5542 11.8121 9.41749
57 3 8.124 6.78348 3.39285
58 3 10.7447 8.99315 9.05508
59 3 7.84237 12.458 4.19764
60 3 10.5155 4.0427 8.9383
61 3 13.2931 6.77471 3.90202
62 3 15.9947 9.10842 9.04983
63 3 13.7762 12.391 3.8178
64 3 16.5751 14.4603 9.23953
ITEM: TIMESTEP
450
ITEM: NUMBER OF ATOMS
64
ITEM: BOX BOUNDS xy xz yz pp pp pp
8.9983349428202963e-02 1.8711828660382249e+01 1.4813123624417897e+00
3.1273106341922485e-03 1.5524024812418773e+01 6.1380316473686678e+00
-3.3371436784789665e-01 1.0538532367847914e+01 4.3446841230529918e+00
ITEM: ATOMS id type x y z
1 1 3.23849 3.6935 -0.173861
2 1 6.60973 5.09624 4.98924
3 1 11.1409 11.7725 9.2829
4 1 6.9874 10.7236 4.74285
5 1 8.88527 2.89589 -0.259657
6 1 11.6071 5.4662 4.63055
7 1 9.50071 8.70904 -0.15825
8 1 12.2459 10.9361 4.82565
9 1 6.44362 2.52323 2.43763
10 1 9.18123 4.54034 7.84945
11 1 6.77096 7.57659 1.88919
12 1 10.2162 9.43025 6.84581
13 1 11.1441 1.83909 2.59749
14 1 15.0541 4.59472 7.75762
15 1 12.9873 8.07349 2.18817
16 1 15.1535 10.3765 7.63534
17 1 4.06053 4.98393 2.51178
18 1 7.16233 7.47235 7.75931
19 1 5.01601 10.7731 1.80248
20 1 8.061 12.8801 8.26576
21 1 9.51679 5.21849 2.13092
22 1 12.3376 7.2118 7.45709
23 1 9.84918 10.5981 2.48031
24 1 13.5267 13.0938 7.59345
25 2 1.63355 10.9165 -0.201645
26 2 3.19912 2.44193 4.90999
27 2 11.7569 5.49472 -0.290147
28 2 3.92547 7.55796 5.10962
29 2 12.0355 4.79108 10.5067
30 2 9.90604 13.0831 5.4538
31 2 12.5102 9.91515 10.5475
32 2 9.39371 8.04931 4.74413
33 3 4.59218 1.75271 0.734213
34 3 7.28568 3.26347 6.58302
35 3 4.99261 6.43524 1.03149
36 3 7.94288 8.83624 6.08503
37 3 9.57678 0.868149 0.890657
38 3 13.1663 3.93355 6.0125
39 3 10.9933 7.01009 0.86539
40 3 13.7202 8.91871 6.04649
41 3 11.9629 3.8826 1.02428
42 3 5.10773 6.47673 6.32656
43 3 2.90597 9.96238 0.976889
44 3 5.22323 12.1622 6.42207
45 3 7.47769 4.45339 0.853153
46 3 10.4087 6.69142 6.11678
47 3 7.62368 9.84953 0.903438
48 3 11.0188 11.8022 6.80072
49 3 4.75833 3.47361 4.05356
50 3 7.45281 5.45212 9.5598
51 3 5.15664 8.84419 3.86405
52 3 8.44779 10.537 9.54853
53 3 9.51551 3.32505 4.33834
54 3 13.3068 5.88375 9.43927
55 3 10.92 9.12647 4.07679
56 3 13.5745 11.354 9.4062
57 3 8.32144 6.63895 3.62413
58 3 11.4313 8.85345 9.08463
59 3 8.67285 11.988 4.06913
60 3 12.4214 14.8689 9.15238
61 3 13.7251 6.47356 3.80343
62 3 16.6794 8.90776 9.18658
63 3 14.3889 12.3437 3.82021
64 3 17.3482 14.2542 9.59034
ITEM: TIMESTEP
500
ITEM: NUMBER OF ATOMS
64
ITEM: BOX BOUNDS xy xz yz pp pp pp
1.1910925620618773e-01 1.9535375771623691e+01 1.9860954608699379e+00
2.1524803413885962e-03 1.5106623385177539e+01 6.4859215669599486e+00
-3.2745229177817770e-01 1.0532270291778190e+01 3.9263078655189618e+00
ITEM: ATOMS id type x y z
1 1 3.03205 3.47184 -0.435816
2 1 7.31098 4.33715 4.67765
3 1 12.1376 11.2609 8.91815
4 1 6.81117 10.3362 5.26882
5 1 16.2279 6.80837 10.6235
6 1 11.9422 5.50521 5.09264
7 1 16.2012 12.3614 10.4538
8 1 13.6398 10.4982 4.98536
9 1 6.91995 2.14388 1.8655
10 1 9.22774 4.63402 7.80197
11 1 7.11609 7.95541 2.00639
12 1 10.3788 9.15301 7.18904
13 1 11.1784 2.35166 2.60884
14 1 15.5721 4.28537 7.5787
15 1 13.0196 8.51987 2.26633
16 1 15.5057 9.56482 7.67935
17 1 4.43915 4.89528 2.57979
18 1 7.06034 7.18648 7.68042
19 1 5.63211 10.7921 1.86691
20 1 9.17163 12.2879 8.96411
21 1 10.0315 5.54139 1.81807
22 1 13.0878 6.9977 7.68497
23 1 10.3836 10.1193 1.74698
24 1 15.1437 13.2315 8.17511
25 2 13.1443 11.0792 -0.136206
26 2 14.1642 2.08419 5.03489
27 2 18.4232 9.51957 10.5062
28 2 4.41414 7.32158 4.89403
29 2 12.1498 4.33174 10.3779
30 2 10.4774 12.989 5.28516
31 2 6.97314 5.45951 -0.228607
32 2 9.71608 7.36504 5.04571
33 3 4.66265 1.85483 0.727352
34 3 7.65603 2.91356 6.81402
35 3 5.41412 6.66507 0.490682
36 3 8.50637 8.72512 6.15041
37 3 9.73761 1.0472 1.05595
38 3 13.5356 3.62155 6.21336
39 3 11.4881 7.34864 0.732305
40 3 14.2513 8.54318 6.11145
41 3 11.904 4.13043 1.23802
42 3 5.56965 6.12998 6.11171
43 3 3.57057 10.0334 0.748829
44 3 16.6067 11.706 6.72276
45 3 7.92064 4.31718 1.07358
46 3 10.4957 6.40552 6.84273
47 3 8.18322 10.1178 1.17134
48 3 11.6873 11.5874 6.31711
49 3 4.92953 2.8102 4.10228
50 3 7.57745 5.45209 9.61619
51 3 5.5112 8.83281 3.61303
52 3 9.11996 9.94152 9.41489
53 3 9.43826 3.20728 4.06086
54 3 13.5493 5.2381 9.31851
55 3 10.9613 8.43496 4.0398
56 3 14.5699 10.78 9.6461
57 3 8.42671 6.34236 3.81448
58 3 12.1508 8.72692 9.05044
59 3 9.72565 11.6691 3.91155
60 3 13.0956 14.4925 8.98758
61 3 13.9564 6.36706 3.73353
62 3 17.0026 8.77173 9.27089
63 3 14.9491 12.1985 3.71688
64 3 18.3919 13.8189 9.41097
ITEM: TIMESTEP
550
ITEM: NUMBER OF ATOMS
64
ITEM: BOX BOUNDS xy xz yz pp pp pp
-3.8874336952431596e+00 1.3504120705206212e+01 2.4792794992403184e+00
4.3441666993174088e-02 1.4624507325611598e+01 -4.0450604892772546e+00
-3.2476554248123701e-01 1.0529583542481253e+01 3.4854809926048009e+00
ITEM: ATOMS id type x y z
1 1 -1.07514 6.61499 9.94069
2 1 7.40251 4.07899 5.14727
3 1 2.32065 11.4205 8.8782
4 1 7.45273 10.4278 4.65368
5 1 10.2704 3.28457 0.142853
6 1 1.73285 5.91125 5.02233
7 1 6.22105 12.8801 10.1259
8 1 3.97803 10.6182 5.57167
9 1 6.68277 2.24966 1.9938
10 1 -1.40256 4.01086 7.9309
11 1 8.13446 7.89617 1.92264
12 1 0.456212 9.09168 7.23135
13 1 0.391175 2.49657 2.62509
14 1 4.93479 4.24799 7.50475
15 1 3.18116 8.29166 2.47926
16 1 4.86763 9.43242 8.06416
17 1 4.92847 4.3936 2.20439
18 1 7.54983 6.83329 7.28836
19 1 5.85662 11.0305 1.77395
20 1 -0.821048 12.0916 9.5152
21 1 10.3764 5.69504 2.05029
22 1 2.42791 5.81515 7.63621
23 1 11.2035 9.64749 2.9406
24 1 4.56211 13.0525 7.83421
25 2 11.0883 0.294201 -0.351032
26 2 6.00186 12.9106 5.24497
27 2 8.01392 9.31804 10.4836
28 2 4.76264 7.21287 4.77324
29 2 1.45883 3.84072 10.2756
30 2 0.517567 12.5575 5.21526
31 2 7.37134 5.72401 -0.251647
32 2 9.80476 7.04535 5.31985
33 3 4.70653 1.96879 0.505856
34 3 10.4064 13.3705 6.83751
35 3 6.02207 6.72537 0.775344
36 3 8.79991 8.69549 6.0103
37 3 10.0991 0.735608 1.44722
38 3 2.7806 3.50513 6.12501
39 3 11.9337 7.48148 0.766182
40 3 3.75952 8.09681 6.3108
41 3 1.45262 4.46232 1.30417
42 3 5.90588 5.69116 5.71139
43 3 3.80656 9.88112 0.452579
44 3 5.96598 11.2383 6.82082
45 3 8.01215 4.12913 1.01209
46 3 0.0272539 6.10773 7.15378
47 3 8.68927 10.1069 0.961017
48 3 1.77502 11.1753 6.30604
49 3 5.02904 2.17626 3.85132
50 3 7.75886 5.42753 9.46026
51 3 5.68159 8.92268 3.53568
52 3 -1.25366 9.25832 9.35654
53 3 -1.1188 2.99383 4.30086
54 3 3.18561 4.29528 9.35689
55 3 0.363739 7.48678 4.0494
56 3 4.36408 11.0177 9.96315
57 3 8.62666 6.24536 3.87016
58 3 2.36434 8.16372 9.0167
59 3 10.0394 11.6988 3.90102
60 3 2.71836 13.7065 9.01469
61 3 3.60429 6.18679 3.45326
62 3 6.69644 8.40659 9.1581
63 3 4.76136 12.1 3.86672
64 3 8.14109 13.6665 9.34151
ITEM: TIMESTEP
600
ITEM: NUMBER OF ATOMS
64
ITEM: BOX BOUNDS xy xz yz pp pp pp
-3.7788751363936113e+00 1.4124141211773713e+01 3.0146861990688643e+00
1.3964210557144341e-01 1.3995217024344031e+01 -3.8518881236887559e+00
-3.3617749017014553e-01 1.0540995490170163e+01 2.9523911299155099e+00
ITEM: ATOMS id type x y z
1 1 -1.15202 6.47264 10.05
2 1 7.6828 3.69826 4.57983
3 1 2.37919 10.3007 9.25496
4 1 8.54108 10.5519 4.69085
5 1 10.5767 3.17483 -0.052039
6 1 2.74291 5.85955 4.91802
7 1 10.887 9.17264 -0.160202
8 1 4.48583 9.86278 5.04307
9 1 6.99049 1.43299 1.60464
10 1 -1.3879 3.58661 7.57938
11 1 7.58506 7.7476 2.37499
12 1 0.398679 8.36973 7.03776
13 1 0.696678 2.61118 2.72682
14 1 5.15444 3.42214 7.1577
15 1 4.46698 7.64982 1.54635
16 1 5.17551 8.85836 7.92625
17 1 4.71373 4.1573 1.29825
18 1 7.74505 6.94194 7.18542
19 1 6.30002 10.9024 1.1798
20 1 9.61351 11.1553 9.06293
21 1 10.9036 6.23686 2.21186
22 1 2.34339 6.01229 8.40105
23 1 11.9172 9.52371 2.91563
24 1 4.83627 13.0664 7.57972
25 2 0.184678 0.34113 -0.317072
26 2 3.51554 1.82089 5.1062
27 2 8.68758 8.82931 10.5286
28 2 5.3705 6.9002 4.56123
29 2 1.46333 3.1812 10.398
30 2 1.31868 11.9548 5.50172
31 2 7.86213 5.86376 0.100576
32 2 10.1075 6.79153 5.1326
33 3 4.48846 2.01165 0.245089
34 3 11.0181 12.5792 6.94621
35 3 6.18511 6.45576 0.978397
36 3 9.36212 8.55519 5.9573
37 3 10.3078 0.908056 1.5721
38 3 3.00971 3.55805 5.92887
39 3 12.2971 7.68742 0.608122
40 3 3.81836 7.42544 6.0035
41 3 1.5677 4.33406 1.06851
42 3 6.1707 5.40047 5.78827
43 3 4.52691 9.82304 0.0966636
44 3 6.67294 11.1678 6.51913
45 3 8.37558 4.01925 0.983397
46 3 0.0269775 5.9886 6.951
47 3 8.96989 10.3662 1.44687
48 3 2.40498 10.3434 6.38209
49 3 5.01247 2.30966 3.82662
50 3 7.98097 4.74555 9.24022
51 3 6.00947 8.68919 3.68068
52 3 -0.507777 8.92483 9.48905
53 3 -0.707118 2.63953 4.94032
54 3 3.05166 3.66476 9.23006
55 3 0.873892 7.09538 4.30179
56 3 5.06485 10.5309 10.4072
57 3 8.69411 5.96234 3.95535
58 3 3.11151 8.07921 9.04842
59 3 10.8821 11.1266 4.2681
60 3 3.01114 13.2373 9.23229
61 3 4.28579 5.85573 3.15489
62 3 7.20678 8.04095 9.24988
63 3 5.07784 11.8436 3.8662
64 3 9.14021 13.398 9.09786
ITEM: TIMESTEP
650
ITEM: NUMBER OF ATOMS
64
ITEM: BOX BOUNDS xy xz yz pp pp pp
-3.8378586612864285e+00 1.4809430083608252e+01 3.5861495278467181e+00
2.2291507455441462e-01 1.3356322553527765e+01 -3.7970461055248861e+00
-3.4605254312100708e-01 1.0550870543121011e+01 2.3967696280822182e+00
ITEM: ATOMS id type x y z
1 1 -0.785255 5.50259 9.39878
2 1 7.46322 3.82416 4.27475
3 1 3.01484 10.7871 9.97332
4 1 9.72119 10.9234 5.34932
5 1 10.8125 3.3122 -0.455114
6 1 2.29739 5.31041 4.41692
7 1 11.21 9.66964 -0.135504
8 1 4.92175 9.47182 4.76817
9 1 7.79873 1.61585 2.40686
10 1 -1.45138 3.40664 7.64637
11 1 8.27688 7.67349 2.01519
12 1 0.753294 8.12511 6.95251
13 1 -0.00539222 2.48155 3.021
14 1 5.23548 3.04911 6.98065
15 1 3.9304 7.29895 0.974611
16 1 5.76131 9.00689 8.3031
17 1 5.17971 4.16045 1.42151
18 1 8.3677 6.4292 7.05652
19 1 6.88327 11.0365 1.69098
20 1 10.4465 10.6707 8.64758
21 1 11.1265 6.0478 1.65489
22 1 1.85762 5.34612 8.71838
23 1 2.08052 9.43531 2.3705
24 1 5.35118 12.3171 7.02327
25 2 7.46399 2.69974 10.4076
26 2 3.52869 1.83975 4.70494
27 2 9.23802 8.15569 10.5689
28 2 5.76248 6.2283 4.6311
29 2 5.09542 0.324556 -0.28705
30 2 1.79762 11.3564 5.75746
31 2 8.11631 5.40721 0.0321651
32 2 10.7199 6.53416 5.16182
33 3 4.42601 2.28426 0.0774836
34 3 11.5695 11.9661 7.10115
35 3 6.58446 6.35715 0.831602
36 3 9.70949 8.26502 5.87134
37 3 10.2091 1.00786 1.20654
38 3 3.06175 3.4083 5.90484
39 3 12.7352 7.62463 0.645378
40 3 4.30086 7.25931 5.91444
41 3 1.38609 4.31407 0.980418
42 3 6.68346 5.13021 6.04373
43 3 4.85503 9.56336 0.191454
44 3 7.2955 11.301 6.24908
45 3 8.84621 3.68942 1.28446
46 3 -0.422823 5.69933 7.07424
47 3 9.1004 10.4144 1.55151
48 3 2.62736 9.75398 6.7827
49 3 5.3629 2.23123 3.81807
50 3 8.34452 4.16597 9.24092
51 3 6.51848 7.9991 3.93845
52 3 -0.153662 8.58401 9.70303
53 3 -0.586277 2.15214 5.41104
54 3 2.79223 3.31651 9.33215
55 3 0.852252 7.35262 3.95263
56 3 9.43101 7.2119 -0.0704354
57 3 9.59469 5.74167 3.75176
58 3 3.78666 7.63555 8.9147
59 3 12.1125 10.7236 3.9719
60 3 3.86783 12.6237 9.00928
61 3 4.45252 5.55536 3.15161